LAMMPS output created by EMC v9.4.4, build Aug 20 2021 07:52:52

         490  atoms
         515  bonds
         900  angles
        1395  dihedrals
         420  impropers

           4  atom types
           8  bond types
          15  angle types
          24  dihedral types
          14  improper types

             0    21.83518593  xlo xhi
             0    21.83518593  ylo yhi
             0    21.83518593  zlo zhi

Masses

       1   12.01115  # c
       2   12.01115  # c1
       3   12.01115  # cp
       4    1.00797  # hc

Pair Coeffs

	 1  1    0.05400    4.01000  # c,c
	 2  2    0.05400    4.01000  # c1,c1
	 3  3    0.06400    4.01000  # cp,cp
	 4  4    0.02000    2.99500  # hc,hc

Bond Coeffs

	1    1.53000  299.67000 -501.77000  679.81000  # c,c
	2    1.53000  299.67000 -501.77000  679.81000  # c,c1
	3    1.50100  321.90210 -521.82080  572.16280  # c,cp
	4    1.10100  345.00000 -691.89000  844.60000  # c,hc
	5    1.50100  321.90210 -521.82080  572.16280  # c1,cp
	6    1.10100  345.00000 -691.89000  844.60000  # c1,hc
	7    1.41700  470.83610 -627.61790 1327.63450  # cp,cp
	8    1.09820  372.82510 -803.45260  894.31730  # cp,hc

Angle Coeffs

	 1  112.67000   39.51600   -7.44300   -9.55830  # c,c,c1
	 2  108.40000   43.95940   -8.39240   -9.33790  # c,c,cp
	 3  110.77000   41.45300  -10.60400    5.12900  # c,c,hc
	 4  112.67000   39.51600   -7.44300   -9.55830  # c,c1,c
	 5  108.40000   43.95940   -8.39240   -9.33790  # c,c1,cp
	 6  110.77000   41.45300  -10.60400    5.12900  # c,c1,hc
	 7  120.05000   44.71480  -22.73520    0.00000  # c,cp,cp
	 8  112.67000   39.51600   -7.44300   -9.55830  # c1,c,c1
	 9  110.77000   41.45300  -10.60400    5.12900  # c1,c,hc
	10  120.05000   44.71480  -22.73520    0.00000  # c1,cp,cp
	11  111.00000   44.32340   -9.44540    0.00000  # cp,c,hc
	12  111.00000   44.32340   -9.44540    0.00000  # cp,c1,hc
	13  118.90000   61.02260  -34.99310    0.00000  # cp,cp,cp
	14  117.94000   35.15580  -12.46820    0.00000  # cp,cp,hc
	15  107.66000   39.64100  -12.92100   -2.43180  # hc,c,hc

BondBond Coeffs

	 1 bb    0.00000    1.53000    1.53000  # c,c,c1
	 2 bb    0.00000    1.53000    1.50100  # c,c,cp
	 3 bb    3.38720    1.53000    1.10100  # c,c,hc
	 4 bb    0.00000    1.53000    1.53000  # c,c1,c
	 5 bb    0.00000    1.53000    1.50100  # c,c1,cp
	 6 bb    3.38720    1.53000    1.10100  # c,c1,hc
	 7 bb   12.06760    1.50100    1.41700  # c,cp,cp
	 8 bb    0.00000    1.53000    1.53000  # c1,c,c1
	 9 bb    3.38720    1.53000    1.10100  # c1,c,hc
	10 bb   12.06760    1.50100    1.41700  # c1,cp,cp
	11 bb    2.91680    1.50100    1.10100  # cp,c,hc
	12 bb    2.91680    1.50100    1.10100  # cp,c1,hc
	13 bb   68.28560    1.41700    1.41700  # cp,cp,cp
	14 bb    1.07950    1.41700    1.09820  # cp,cp,hc
	15 bb    5.33160    1.10100    1.10100  # hc,c,hc

BondAngle Coeffs

	 1 ba    8.01600    8.01600    1.53000    1.53000  # c,c,c1
	 2 ba    0.00000    0.00000    1.53000    1.50100  # c,c,cp
	 3 ba   20.75400   11.42100    1.53000    1.10100  # c,c,hc
	 4 ba    8.01600    8.01600    1.53000    1.53000  # c,c1,c
	 5 ba    0.00000    0.00000    1.53000    1.50100  # c,c1,cp
	 6 ba   20.75400   11.42100    1.53000    1.10100  # c,c1,hc
	 7 ba   47.05790   31.07710    1.50100    1.41700  # c,cp,cp
	 8 ba    8.01600    8.01600    1.53000    1.53000  # c1,c,c1
	 9 ba   11.42100   20.75400    1.53000    1.10100  # c1,c,hc
	10 ba   47.05790   31.07710    1.50100    1.41700  # c1,cp,cp
	11 ba   11.77170   26.46080    1.50100    1.10100  # cp,c,hc
	12 ba   11.77170   26.46080    1.50100    1.10100  # cp,c1,hc
	13 ba   28.87080   28.87080    1.41700    1.41700  # cp,cp,cp
	14 ba   24.21830   20.00330    1.41700    1.09820  # cp,cp,hc
	15 ba   18.10300   18.10300    1.10100    1.10100  # hc,c,hc

Dihedral Coeffs

	 1    0.00000    0.00000    0.05140    0.00000   -0.14300    0.00000  # c,c,c1,c
	 2    0.00000    0.00000    0.00000    0.00000    0.15800  180.00000  # c,c,c1,cp
	 3    0.00000    0.00000    0.03160    0.00000   -0.16810    0.00000  # c,c,c1,hc
	 4   -0.28020    0.00000   -0.06780    0.00000   -0.01220    0.00000  # c,c,cp,cp
	 5    0.00000    0.00000    0.05140    0.00000   -0.14300    0.00000  # c,c1,c,c1
	 6    0.00000    0.00000    0.03160    0.00000   -0.16810    0.00000  # c,c1,c,hc
	 7   -0.28020    0.00000   -0.06780    0.00000   -0.01220    0.00000  # c,c1,cp,cp
	 8    0.00000    0.00000    4.40720    0.00000    0.00000    0.00000  # c,cp,cp,cp
	 9    0.00000    0.00000    1.55900    0.00000    0.00000    0.00000  # c,cp,cp,hc
	10    0.00000    0.00000    0.00000    0.00000    0.15800  180.00000  # c1,c,c,cp
	11    0.00000    0.00000    0.03160    0.00000   -0.16810    0.00000  # c1,c,c,hc
	12    0.00000    0.00000    0.00000    0.00000    0.15800  180.00000  # c1,c,c1,cp
	13    0.00000    0.00000    0.03160    0.00000   -0.16810    0.00000  # c1,c,c1,hc
	14    0.00000    0.00000    4.40720    0.00000    0.00000    0.00000  # c1,cp,cp,cp
	15    0.00000    0.00000    1.55900    0.00000    0.00000    0.00000  # c1,cp,cp,hc
	16   -0.02280    0.00000    0.02800    0.00000   -0.18630    0.00000  # cp,c,c,hc
	17   -0.02280    0.00000    0.02800    0.00000   -0.18630    0.00000  # cp,c1,c,hc
	18   -0.28010    0.00000   -0.06780    0.00000   -0.01220    0.00000  # cp,cp,c,hc
	19   -0.28010    0.00000   -0.06780    0.00000   -0.01220    0.00000  # cp,cp,c1,hc
	20    8.36670    0.00000    1.19320    0.00000    0.00000    0.00000  # cp,cp,cp,cp
	21    0.00000    0.00000    3.96610    0.00000    0.00000    0.00000  # cp,cp,cp,hc
	22   -0.14320    0.00000    0.06170    0.00000   -0.10830    0.00000  # hc,c,c,hc
	23   -0.14320    0.00000    0.06170    0.00000   -0.10830    0.00000  # hc,c,c1,hc
	24    0.00000    0.00000    1.87690    0.00000    0.00000    0.00000  # hc,cp,cp,hc

MiddleBondTorsion Coeffs

	 1 mbt  -17.78700   -7.18770    0.00000    1.53000  # c,c,c1,c
	 2 mbt    0.00000    0.00000    0.00000    1.53000  # c,c,c1,cp
	 3 mbt  -14.87900   -3.65810   -0.31380    1.53000  # c,c,c1,hc
	 4 mbt    0.00000    0.00000    0.00000    1.50100  # c,c,cp,cp
	 5 mbt  -17.78700   -7.18770    0.00000    1.53000  # c,c1,c,c1
	 6 mbt  -14.87900   -3.65810   -0.31380    1.53000  # c,c1,c,hc
	 7 mbt    0.00000    0.00000    0.00000    1.50100  # c,c1,cp,cp
	 8 mbt    0.00000    9.17920    0.00000    1.41700  # c,cp,cp,cp
	 9 mbt    0.00000    3.94210    0.00000    1.41700  # c,cp,cp,hc
	10 mbt    0.00000    0.00000    0.00000    1.53000  # c1,c,c,cp
	11 mbt  -14.87900   -3.65810   -0.31380    1.53000  # c1,c,c,hc
	12 mbt    0.00000    0.00000    0.00000    1.53000  # c1,c,c1,cp
	13 mbt  -14.87900   -3.65810   -0.31380    1.53000  # c1,c,c1,hc
	14 mbt    0.00000    9.17920    0.00000    1.41700  # c1,cp,cp,cp
	15 mbt    0.00000    3.94210    0.00000    1.41700  # c1,cp,cp,hc
	16 mbt    0.00000    0.00000    0.00000    1.53000  # cp,c,c,hc
	17 mbt    0.00000    0.00000    0.00000    1.53000  # cp,c1,c,hc
	18 mbt   -5.56790    1.40830    0.30100    1.50100  # cp,cp,c,hc
	19 mbt   -5.56790    1.40830    0.30100    1.50100  # cp,cp,c1,hc
	20 mbt   27.59890   -2.31200    0.00000    1.41700  # cp,cp,cp,cp
	21 mbt    0.00000   -1.15210    0.00000    1.41700  # cp,cp,cp,hc
	22 mbt  -14.26100   -0.53220   -0.48640    1.53000  # hc,c,c,hc
	23 mbt  -14.26100   -0.53220   -0.48640    1.53000  # hc,c,c1,hc
	24 mbt    0.00000    4.82280    0.00000    1.41700  # hc,cp,cp,hc

EndBondTorsion Coeffs

	 1 ebt   -0.07320    0.00000    0.00000   -0.07320    0.00000    0.00000    1.53000    1.53000  # c,c,c1,c
	 2 ebt    0.00000    0.00000    0.00000    0.00000    0.00000    0.00000    1.53000    1.50100  # c,c,c1,cp
	 3 ebt    0.24860    0.24220   -0.09250    0.08140    0.05910    0.22190    1.53000    1.10100  # c,c,c1,hc
	 4 ebt    0.00000    0.00000    0.00000    0.00000    0.00000    0.00000    1.53000    1.41700  # c,c,cp,cp
	 5 ebt   -0.07320    0.00000    0.00000   -0.07320    0.00000    0.00000    1.53000    1.53000  # c,c1,c,c1
	 6 ebt    0.24860    0.24220   -0.09250    0.08140    0.05910    0.22190    1.53000    1.10100  # c,c1,c,hc
	 7 ebt    0.00000    0.00000    0.00000    0.00000    0.00000    0.00000    1.53000    1.41700  # c,c1,cp,cp
	 8 ebt    0.00000    0.24210    0.00000    0.00000   -0.69180    0.00000    1.50100    1.41700  # c,cp,cp,cp
	 9 ebt    0.00000   -1.79700    0.00000    0.00000   -0.48790    0.00000    1.50100    1.09820  # c,cp,cp,hc
	10 ebt    0.00000    0.00000    0.00000    0.00000    0.00000    0.00000    1.53000    1.50100  # c1,c,c,cp
	11 ebt    0.08140    0.05910    0.22190    0.24860    0.24220   -0.09250    1.53000    1.10100  # c1,c,c,hc
	12 ebt    0.00000    0.00000    0.00000    0.00000    0.00000    0.00000    1.53000    1.50100  # c1,c,c1,cp
	13 ebt    0.08140    0.05910    0.22190    0.24860    0.24220   -0.09250    1.53000    1.10100  # c1,c,c1,hc
	14 ebt    0.00000    0.24210    0.00000    0.00000   -0.69180    0.00000    1.50100    1.41700  # c1,cp,cp,cp
	15 ebt    0.00000   -0.48790    0.00000    0.00000   -1.79700    0.00000    1.50100    1.09820  # c1,cp,cp,hc
	16 ebt    0.00000    0.00000    0.00000    0.00000    0.00000    0.00000    1.50100    1.10100  # cp,c,c,hc
	17 ebt    0.00000    0.00000    0.00000    0.00000    0.00000    0.00000    1.50100    1.10100  # cp,c1,c,hc
	18 ebt    1.39970    0.77560    0.00000   -0.58350    1.12200    0.39780    1.41700    1.10100  # cp,cp,c,hc
	19 ebt    1.39970    0.77560    0.00000   -0.58350    1.12200    0.39780    1.41700    1.10100  # cp,cp,c1,hc
	20 ebt   -0.11850    6.32040    0.00000   -0.11850    6.32040    0.00000    1.41700    1.41700  # cp,cp,cp,cp
	21 ebt    0.00000   -0.46690    0.00000    0.00000   -6.89580    0.00000    1.41700    1.09820  # cp,cp,cp,hc
	22 ebt    0.21300    0.31200    0.07770    0.21300    0.31200    0.07770    1.10100    1.10100  # hc,c,c,hc
	23 ebt    0.21300    0.31200    0.07770    0.21300    0.31200    0.07770    1.10100    1.10100  # hc,c,c1,hc
	24 ebt    0.00000   -0.68900    0.00000    0.00000   -0.68900    0.00000    1.09820    1.09820  # hc,cp,cp,hc

AngleTorsion Coeffs

	 1 at    0.38860   -0.31390    0.13890    0.38860   -0.31390    0.13890  112.67000  112.67000  # c,c,c1,c
	 2 at    0.00000    0.00000    0.00000    0.00000    0.00000    0.00000  112.67000  108.40000  # c,c,c1,cp
	 3 at   -0.24540    0.00000   -0.11360    0.31130    0.45160   -0.19880  112.67000  110.77000  # c,c,c1,hc
	 4 at    0.00000    0.00000    0.00000    0.00000    0.00000    0.00000  108.40000  120.05000  # c,c,cp,cp
	 5 at    0.38860   -0.31390    0.13890    0.38860   -0.31390    0.13890  112.67000  112.67000  # c,c1,c,c1
	 6 at   -0.24540    0.00000   -0.11360    0.31130    0.45160   -0.19880  112.67000  110.77000  # c,c1,c,hc
	 7 at    0.00000    0.00000    0.00000    0.00000    0.00000    0.00000  108.40000  120.05000  # c,c1,cp,cp
	 8 at    0.00000   -4.46830    0.00000    0.00000    3.89870    0.00000  120.05000  118.90000  # c,cp,cp,cp
	 9 at    0.00000   -0.12420    0.00000    0.00000    3.46010    0.00000  120.05000  117.94000  # c,cp,cp,hc
	10 at    0.00000    0.00000    0.00000    0.00000    0.00000    0.00000  112.67000  108.40000  # c1,c,c,cp
	11 at    0.31130    0.45160   -0.19880   -0.24540    0.00000   -0.11360  112.67000  110.77000  # c1,c,c,hc
	12 at    0.00000    0.00000    0.00000    0.00000    0.00000    0.00000  112.67000  108.40000  # c1,c,c1,cp
	13 at    0.31130    0.45160   -0.19880   -0.24540    0.00000   -0.11360  112.67000  110.77000  # c1,c,c1,hc
	14 at    0.00000   -4.46830    0.00000    0.00000    3.89870    0.00000  120.05000  118.90000  # c1,cp,cp,cp
	15 at    0.00000    3.46010    0.00000    0.00000   -0.12420    0.00000  120.05000  117.94000  # c1,cp,cp,hc
	16 at    0.00000    0.00000    0.00000    0.00000    0.00000    0.00000  108.40000  110.77000  # cp,c,c,hc
	17 at    0.00000    0.00000    0.00000    0.00000    0.00000    0.00000  108.40000  110.77000  # cp,c1,c,hc
	18 at    4.62660    0.16320    0.04610    0.22510    0.65480    0.12370  120.05000  111.00000  # cp,cp,c,hc
	19 at    4.62660    0.16320    0.04610    0.22510    0.65480    0.12370  120.05000  111.00000  # cp,cp,c1,hc
	20 at    1.97670    1.02390    0.00000    1.97670    1.02390    0.00000  118.90000  118.90000  # cp,cp,cp,cp
	21 at    0.00000    2.71470    0.00000    0.00000    2.50140    0.00000  118.90000  117.94000  # cp,cp,cp,hc
	22 at   -0.80850    0.55690   -0.24660   -0.80850    0.55690   -0.24660  110.77000  110.77000  # hc,c,c,hc
	23 at   -0.80850    0.55690   -0.24660   -0.80850    0.55690   -0.24660  110.77000  110.77000  # hc,c,c1,hc
	24 at    0.00000    2.45010    0.00000    0.00000    2.45010    0.00000  117.94000  117.94000  # hc,cp,cp,hc

AngleAngleTorsion Coeffs

	 1 aat  -22.04500  112.67000  112.67000  # c,c,c1,c
	 2 aat    0.00000  112.67000  108.40000  # c,c,c1,cp
	 3 aat  -16.16400  112.67000  110.77000  # c,c,c1,hc
	 4 aat    0.00000  108.40000  120.05000  # c,c,cp,cp
	 5 aat  -22.04500  112.67000  112.67000  # c,c1,c,c1
	 6 aat  -16.16400  112.67000  110.77000  # c,c1,c,hc
	 7 aat    0.00000  108.40000  120.05000  # c,c1,cp,cp
	 8 aat  -14.40970  120.05000  118.90000  # c,cp,cp,cp
	 9 aat    4.44440  120.05000  117.94000  # c,cp,cp,hc
	10 aat    0.00000  112.67000  108.40000  # c1,c,c,cp
	11 aat  -16.16400  112.67000  110.77000  # c1,c,c,hc
	12 aat    0.00000  112.67000  108.40000  # c1,c,c1,cp
	13 aat  -16.16400  112.67000  110.77000  # c1,c,c1,hc
	14 aat  -14.40970  120.05000  118.90000  # c1,cp,cp,cp
	15 aat    4.44440  120.05000  117.94000  # c1,cp,cp,hc
	16 aat    0.00000  108.40000  110.77000  # cp,c,c,hc
	17 aat    0.00000  108.40000  110.77000  # cp,c1,c,hc
	18 aat   -5.88880  120.05000  111.00000  # cp,cp,c,hc
	19 aat   -5.88880  120.05000  111.00000  # cp,cp,c1,hc
	20 aat    0.00000  118.90000  118.90000  # cp,cp,cp,cp
	21 aat   -4.81410  118.90000  117.94000  # cp,cp,cp,hc
	22 aat  -12.56400  110.77000  110.77000  # hc,c,c,hc
	23 aat  -12.56400  110.77000  110.77000  # hc,c,c1,hc
	24 aat    0.35980  117.94000  117.94000  # hc,cp,cp,hc

BondBond13 Coeffs

	 1 bb13    0.00000    1.53000    1.53000  # c,c,c1,c
	 2 bb13    0.00000    1.53000    1.50100  # c,c,c1,cp
	 3 bb13    0.00000    1.53000    1.10100  # c,c,c1,hc
	 4 bb13    0.00000    1.53000    1.41700  # c,c,cp,cp
	 5 bb13    0.00000    1.53000    1.53000  # c,c1,c,c1
	 6 bb13    0.00000    1.53000    1.10100  # c,c1,c,hc
	 7 bb13    0.00000    1.53000    1.41700  # c,c1,cp,cp
	 8 bb13    2.50850    1.50100    1.41700  # c,cp,cp,cp
	 9 bb13    0.87430    1.50100    1.09820  # c,cp,cp,hc
	10 bb13    0.00000    1.53000    1.50100  # c1,c,c,cp
	11 bb13    0.00000    1.53000    1.10100  # c1,c,c,hc
	12 bb13    0.00000    1.53000    1.50100  # c1,c,c1,cp
	13 bb13    0.00000    1.53000    1.10100  # c1,c,c1,hc
	14 bb13    2.50850    1.50100    1.41700  # c1,cp,cp,cp
	15 bb13    0.87430    1.50100    1.09820  # c1,cp,cp,hc
	16 bb13    0.00000    1.50100    1.10100  # cp,c,c,hc
	17 bb13    0.00000    1.50100    1.10100  # cp,c1,c,hc
	18 bb13   -3.48260    1.41700    1.10100  # cp,cp,c,hc
	19 bb13   -3.48260    1.41700    1.10100  # cp,cp,c1,hc
	20 bb13   53.00000    1.41700    1.41700  # cp,cp,cp,cp
	21 bb13   -6.27410    1.41700    1.09820  # cp,cp,cp,hc
	22 bb13    0.00000    1.10100    1.10100  # hc,c,c,hc
	23 bb13    0.00000    1.10100    1.10100  # hc,c,c1,hc
	24 bb13   -1.70770    1.09820    1.09820  # hc,cp,cp,hc

Improper Coeffs

	 1    0.00000    0.00000  # c,c,cp,hc
	 2    0.00000    0.00000  # c,c,hc,c1
	 3    0.00000    0.00000  # c,c,hc,cp
	 4    0.00000    0.00000  # c,c,hc,hc
	 5    0.00000    0.00000  # c,c1,c1,hc
	 6    0.00000    0.00000  # c,c1,hc,hc
	 7    0.00000    0.00000  # c,cp,hc,hc
	 8    0.00000    0.00000  # c,hc,hc,hc
	 9    0.00000    0.00000  # c1,c,c,cp
	10    0.00000    0.00000  # c1,c,c,hc
	11    0.00000    0.00000  # c1,c,cp,hc
	12    7.81530    0.00000  # cp,c,cp,cp
	13    7.81530    0.00000  # cp,c1,cp,cp
	14    4.89120    0.00000  # cp,cp,cp,hc

AngleAngle Coeffs

	 1 aa    2.04030    0.00000    1.08270  108.40000  110.77000  111.00000  # c,c,cp,hc
	 2 aa    0.11840    0.00000   -1.31990  110.77000  112.67000  110.77000  # c,c,hc,c1
	 3 aa    1.08270    0.00000    2.04030  110.77000  108.40000  111.00000  # c,c,hc,cp
	 4 aa    0.27380   -0.48250    0.27380  110.77000  110.77000  107.66000  # c,c,hc,hc
	 5 aa    0.00000    0.00000    0.11840  112.67000  110.77000  110.77000  # c,c1,c1,hc
	 6 aa    0.00000   -0.48250    0.00000  110.77000  110.77000  107.66000  # c,c1,hc,hc
	 7 aa    0.00000    3.01180    0.00000  111.00000  111.00000  107.66000  # c,cp,hc,hc
	 8 aa   -0.31570   -0.31570   -0.31570  107.66000  107.66000  107.66000  # c,hc,hc,hc
	 9 aa    0.00000    0.00000    0.00000  112.67000  108.40000  108.40000  # c1,c,c,cp
	10 aa   -1.31990   -1.31990    0.11840  112.67000  110.77000  110.77000  # c1,c,c,hc
	11 aa    2.04030    0.00000    1.08270  108.40000  110.77000  111.00000  # c1,c,cp,hc
	12 aa    0.00000    0.00000    0.00000  120.05000  120.05000  118.90000  # cp,c,cp,cp
	13 aa    0.00000    0.00000    0.00000  120.05000  120.05000  118.90000  # cp,c1,cp,cp
	14 aa    0.00000    0.00000    0.00000  118.90000  117.94000  117.94000  # cp,cp,cp,hc

Atoms

       1       1   1 -0.1590  16.3921849227  16.3145070957   2.4705192114  # c
       2       1   4  0.0530  16.1125268488  15.5975008391   1.6796249789  # hc
       3       1   4  0.0530  17.2989267924  15.9529808328   2.8954059057  # hc
       4       1   2 -0.0530  15.1788489600  16.3157853832   3.4883374421  # c1
       5       1   4  0.0530  14.2662570643  16.4308353473   2.9430792441  # hc
       6       1   3  0.0000  15.1318665706  17.4411836043   4.4428364998  # cp
       7       1   3 -0.1268  15.7650552120  17.6189416969   5.6410411205  # cp
       8       1   4  0.1268  16.6620189037  17.0457888261   5.8997211621  # hc
       9       1   3 -0.1268  15.4194039708  18.6380641383   6.5538145362  # cp
      10       1   4  0.1268  16.0055438154  18.8761136137   7.4884779699  # hc
      11       1   3 -0.1268  14.4577184730  19.5627642650   6.2576653436  # cp
      12       1   4  0.1268  14.1810118697  20.4438525248   6.9498244461  # hc
      13       1   3 -0.1268  13.7002244008  19.3442389041   5.0767383676  # cp
      14       1   4  0.1268  12.8369510365  20.0478791803   4.8845402861  # hc
      15       1   3 -0.1268  14.1535574696  18.4020687549   4.1623019931  # cp
      16       1   4  0.1268  13.6933481320  18.4293568634   3.1599660183  # hc
      17       1   1 -0.1060  14.7036324874  15.0529188430   4.2108229063  # c
      18       1   4  0.0530  13.9162178405  15.3313443219   4.8372396177  # hc
      19       1   4  0.0530  14.3411616686  14.4078845587   3.3191169868  # hc
      20       1   2 -0.0530  15.4986205232  13.9216761400   4.9325949669  # c1
      21       1   4  0.0530  16.3907540503  13.6271170481   4.3576896449  # hc
      22       1   3  0.0000  14.5418961101  12.7825915981   5.0751654498  # cp
      23       1   3 -0.1268  13.1430025351  12.7521627599   4.7928981165  # cp
      24       1   4  0.1268  12.7301789555  13.6879364925   4.4905083373  # hc
      25       1   3 -0.1268  12.4078224216  11.6061942466   4.7578323621  # cp
      26       1   4  0.1268  11.4096831706  11.5610204062   4.2562844531  # hc
      27       1   3 -0.1268  13.0602746899  10.4255716951   5.1502758788  # cp
      28       1   4  0.1268  12.7266357254   9.4341648345   4.9406584227  # hc
      29       1   3 -0.1268  14.3814330226  10.4446330182   5.5376210781  # cp
      30       1   4  0.1268  14.9161740088   9.5258490240   5.7955847421  # hc
      31       1   3 -0.1268  15.1668740471  11.5865812810   5.3779843531  # cp
      32       1   4  0.1268  16.3136506009  11.5403481899   5.4746533334  # hc
      33       1   1 -0.1060  15.8396359079  14.4346787348   6.2887999286  # c
      34       1   4  0.0530  14.9752350853  14.8817062651   6.8025265410  # hc
      35       1   4  0.0530  16.5576795073  15.1919618931   5.9315289711  # hc
      36       1   2 -0.0530  16.8261820085  13.9306939116   7.5189286880  # c1
      37       1   4  0.0530  17.1786829445  14.8987390017   7.7486039203  # hc
      38       1   3  0.0000  16.0861011076  13.4663942408   8.6994089430  # cp
      39       1   3 -0.1268  16.2030787549  14.2031401316   9.8940712017  # cp
      40       1   4  0.1268  16.7673319928  15.1549692124  10.0874373065  # hc
      41       1   3 -0.1268  15.4581193815  13.9168060184  11.0327476148  # cp
      42       1   4  0.1268  15.5255901866  14.4677941167  11.9983176794  # hc
      43       1   3 -0.1268  14.6022278921  12.8447040220  11.0034380038  # cp
      44       1   4  0.1268  14.1022280485  12.5451668641  11.9631452465  # hc
      45       1   3 -0.1268  14.5443465907  12.0774898719   9.8574141324  # cp
      46       1   4  0.1268  14.0086905128  11.0869239204   9.8443298697  # hc
      47       1   3 -0.1268  15.2689094870  12.3339047597   8.7198297838  # cp
      48       1   4  0.1268  15.1528893993  11.7257681684   7.8265284651  # hc
      49       1   1 -0.1060  18.0713448778  12.9926935926   7.2774502204  # c
      50       1   4  0.0530  17.8687067955  11.9911352489   7.7646185366  # hc
      51       1   4  0.0530  18.0831918139  12.6612740220   6.0893156822  # hc
      52       1   2 -0.0530  19.5532390310  13.3930817636   7.7715437354  # c1
      53       1   4  0.0530  19.7924845892  12.5467168562   8.3676950702  # hc
      54       1   3  0.0000  19.6891044091  14.4960467520   8.8205814943  # cp
      55       1   3 -0.1268  20.7862718596  14.2957908328   9.6270649598  # cp
      56       1   4  0.1268  21.3572659465  13.3957593304   9.6612558814  # hc
      57       1   3 -0.1268  21.0747417773  15.0598492148  10.7231281772  # cp
      58       1   4  0.1268  21.9062001464  14.8034393688  11.4129828506  # hc
      59       1   3 -0.1268  20.2851214529  16.1478079621  11.0142483148  # cp
      60       1   4  0.1268  20.5892999962  16.8738509758  11.7887473461  # hc
      61       1   3 -0.1268  19.2330622075  16.4155960947  10.2014713074  # cp
      62       1   4  0.1268  18.5968154787  17.3425005736  10.3653080717  # hc
      63       1   3 -0.1268  18.9283262641  15.6254921792   9.1190695070  # cp
      64       1   4  0.1268  18.1402752394  16.1126007849   8.5254497249  # hc
      65       1   1 -0.1060  20.3735763219  13.4325876432   6.4941678833  # c
      66       1   4  0.0530  19.8677571080  14.2024284796   5.9674763905  # hc
      67       1   4  0.0530  20.0799331182  12.5011085471   6.0307487575  # hc
      68       1   2 -0.0530  21.8753507315  13.6207893596   6.0879853859  # c1
      69       1   4  0.0530  21.6361359092  13.7386661074   4.9288598136  # hc
      70       1   3  0.0000  22.5104442970  12.2660770370   6.3064777383  # cp
      71       1   3 -0.1268  22.3408423583  11.6398892755   7.5232579541  # cp
      72       1   4  0.1268  21.8271759061  12.0864683306   8.4068996095  # hc
      73       1   3 -0.1268  22.9308812693  10.4701727728   7.7283049210  # cp
      74       1   4  0.1268  22.9919522094  10.0640119857   8.7750564413  # hc
      75       1   3 -0.1268  23.6706961719   9.8911654477   6.6646929696  # cp
      76       1   4  0.1268  24.2259674754   8.8375601948   6.8417504264  # hc
      77       1   3 -0.1268  23.8038031749  10.5170452169   5.4455034788  # cp
      78       1   4  0.1268  24.4864073433  10.1298940757   4.7093868239  # hc
      79       1   3 -0.1268  23.2367995225  11.7795140010   5.2449906786  # cp
      80       1   4  0.1268  23.5391367190  12.1408639671   4.2409453706  # hc
      81       1   1 -0.1060  23.0699872856  14.5608414080   6.3864179756  # c
      82       1   4  0.0530  23.1106895801  14.7163183863   7.4664359931  # hc
      83       1   4  0.0530  24.0279141880  14.2101620168   6.1049071349  # hc
      84       1   1 -0.1060  22.9129892848  15.9058797173   5.7154346765  # c
      85       1   4  0.0530  22.6008503261  15.7187390864   4.7104772655  # hc
      86       1   3  0.0000  21.9115915287  16.6755266289   6.4627346212  # cp
      87       1   3 -0.1268  20.6376193815  16.7373298670   5.9620539966  # cp
      88       1   4  0.1268  20.4051524437  16.4108454954   4.8996618778  # hc
      89       1   3 -0.1268  19.6093329056  17.3946347398   6.6264532397  # cp
      90       1   4  0.1268  18.5464960512  17.3815779657   6.3089364369  # hc
      91       1   3 -0.1268  19.8430276599  18.0004021850   7.7887682567  # cp
      92       1   4  0.1268  18.9854272225  18.5117465316   8.3074138941  # hc
      93       1   3 -0.1268  21.1025552299  17.8413017025   8.4133825542  # cp
      94       1   4  0.1268  21.3515254502  18.3085836809   9.3930346273  # hc
      95       1   3 -0.1268  22.1233727294  17.1817464191   7.7248960082  # cp
      96       1   4  0.1268  23.0969562938  17.3081466012   8.1271926759  # hc
      97       1   4  0.0530  16.4250191734  17.3671481411   2.0147703134  # hc
      98       1   4  0.0530  23.8801627695  16.4934074406   5.6475450383  # hc
      99       2   1 -0.1590  14.7052911685   6.6272183828  10.5816690060  # c
     100       2   4  0.0530  13.9630438249   5.8199879932  10.3635171149  # hc
     101       2   4  0.0530  14.2249569984   7.5979674826  10.7002918060  # hc
     102       2   2 -0.0530  15.8380129508   6.6378723827   9.5587495944  # c1
     103       2   4  0.0530  16.6156982784   7.1480808604  10.0540303265  # hc
     104       2   3  0.0000  16.3175544302   5.2134795135   9.5162098202  # cp
     105       2   3 -0.1268  15.5641474668   4.1104568430   9.1733111991  # cp
     106       2   4  0.1268  14.6239763353   4.1327831829   8.5925903285  # hc
     107       2   3 -0.1268  16.0212697141   2.8019725229   9.4687535180  # cp
     108       2   4  0.1268  15.4183128583   1.9031907219   9.1793277482  # hc
     109       2   3 -0.1268  17.2383286728   2.6145438576  10.1198611572  # cp
     110       2   4  0.1268  17.4526992468   1.6258673227  10.4301448150  # hc
     111       2   3 -0.1268  17.9997290089   3.7214096562  10.3317025712  # cp
     112       2   4  0.1268  18.9173476994   3.6657845033  10.9449357385  # hc
     113       2   3 -0.1268  17.5403415595   5.0280853566  10.0731585334  # cp
     114       2   4  0.1268  18.1433088913   5.9833471292  10.3211807548  # hc
     115       2   1 -0.1060  15.3929548904   7.3753307610   8.2312444375  # c
     116       2   4  0.0530  14.5378264390   6.7998559322   7.8553063998  # hc
     117       2   4  0.0530  16.1669226029   7.3083294137   7.4695554980  # hc
     118       2   2 -0.0530  14.9978211931   8.8481054953   8.4869293220  # c1
     119       2   4  0.0530  15.5324485078   9.3718173339   7.6468428429  # hc
     120       2   3  0.0000  15.8380362502   9.3846513895   9.7299845931  # cp
     121       2   3 -0.1268  15.4709674486   9.6591904096  11.0459402794  # cp
     122       2   4  0.1268  14.3857618066   9.6040290029  11.2990317592  # hc
     123       2   3 -0.1268  16.4268625261  10.0892405978  12.0035603165  # cp
     124       2   4  0.1268  16.0833738850  10.5404050400  12.9445824025  # hc
     125       2   3 -0.1268  17.7632609101  10.1862845613  11.5403125496  # cp
     126       2   4  0.1268  18.5749614470  10.4645744399  12.2416834508  # hc
     127       2   3 -0.1268  18.1756443340   9.8285331679  10.2385150986  # cp
     128       2   4  0.1268  19.3125148887   9.8292446882   9.8609609939  # hc
     129       2   3 -0.1268  17.1895107214   9.4598837416   9.3502877027  # cp
     130       2   4  0.1268  17.5197754495   9.1566288836   8.3105370683  # hc
     131       2   1 -0.1060  13.3586443487   8.9457687918   8.1705891104  # c
     132       2   4  0.0530  13.2119981332   9.2520274016   7.1655668082  # hc
     133       2   4  0.0530  12.9002120867   7.9867127337   8.1909545730  # hc
     134       2   2 -0.0530  12.0871168798   9.6621830492   8.9691426405  # c1
     135       2   4  0.0530  12.1143150805   9.2328101960   9.9747521692  # hc
     136       2   3  0.0000  11.8855697093  11.1789521327   9.1339144667  # cp
     137       2   3 -0.1268  11.7642558266  12.1053771330   8.0968204054  # cp
     138       2   4  0.1268  11.9061773754  11.7936267114   7.0078056333  # hc
     139       2   3 -0.1268  11.5488545185  13.4223825985   8.3103714220  # cp
     140       2   4  0.1268  11.3556915716  14.0808641463   7.3736407226  # hc
     141       2   3 -0.1268  11.3725715196  13.9194563962   9.5431771324  # cp
     142       2   4  0.1268  11.0461575298  14.9472314316   9.6708647435  # hc
     143       2   3 -0.1268  11.4124514314  13.0131052244  10.6220456318  # cp
     144       2   4  0.1268  11.2195097417  13.3303086853  11.6806834119  # hc
     145       2   3 -0.1268  11.6702200447  11.6442840836  10.4024718079  # cp
     146       2   4  0.1268  11.6445429101  11.0021571061  11.2652795257  # hc
     147       2   1 -0.1060  10.7304752475   9.3043548924   8.1507901522  # c
     148       2   4  0.0530  10.8875485245   9.9122588336   7.2523846794  # hc
     149       2   4  0.0530   9.9061464081   9.7755091733   8.6998746977  # hc
     150       2   2 -0.0530  10.0525351075   7.9384946947   7.8681029705  # c1
     151       2   4  0.0530   9.0303204426   8.2270580644   7.4586949950  # hc
     152       2   3  0.0000  10.6136556703   6.9480471838   6.7398289776  # cp
     153       2   3 -0.1268  10.5493139532   5.5899477017   6.8547774887  # cp
     154       2   4  0.1268  10.0935732915   5.1432197999   7.7567311310  # hc
     155       2   3 -0.1268  11.1034096516   4.7389600080   5.8960851500  # cp
     156       2   4  0.1268  11.2086307623   3.5834457220   6.1010666156  # hc
     157       2   3 -0.1268  11.7775530651   5.2853867236   4.8270214636  # cp
     158       2   4  0.1268  12.2385567363   4.5988895895   4.0691400194  # hc
     159       2   3 -0.1268  11.6116072472   6.6538765891   4.6361171006  # cp