LAMMPS output created by EMC v9.4.4, build Aug 20 2021 07:52:52

         520  atoms
         545  bonds
         960  angles
        1485  dihedrals
         460  impropers

           4  atom types
           7  bond types
          12  angle types
          18  dihedral types
          10  improper types

             0     22.1561405  xlo xhi
             0     22.1561405  ylo yhi
             0     22.1561405  zlo zhi

Masses

       1   12.01115  # c
       2   12.01115  # c1
       3   12.01115  # cp
       4    1.00797  # hc

Pair Coeffs

	 1  1    0.05400    4.01000  # c,c
	 2  2    0.05400    4.01000  # c1,c1
	 3  3    0.06400    4.01000  # cp,cp
	 4  4    0.02000    2.99500  # hc,hc

Bond Coeffs

	1    1.53000  299.67000 -501.77000  679.81000  # c,c
	2    1.53000  299.67000 -501.77000  679.81000  # c,c1
	3    1.10100  345.00000 -691.89000  844.60000  # c,hc
	4    1.50100  321.90210 -521.82080  572.16280  # c1,cp
	5    1.10100  345.00000 -691.89000  844.60000  # c1,hc
	6    1.41700  470.83610 -627.61790 1327.63450  # cp,cp
	7    1.09820  372.82510 -803.45260  894.31730  # cp,hc

Angle Coeffs

	 1  112.67000   39.51600   -7.44300   -9.55830  # c,c,c1
	 2  110.77000   41.45300  -10.60400    5.12900  # c,c,hc
	 3  112.67000   39.51600   -7.44300   -9.55830  # c,c1,c
	 4  108.40000   43.95940   -8.39240   -9.33790  # c,c1,cp
	 5  110.77000   41.45300  -10.60400    5.12900  # c,c1,hc
	 6  112.67000   39.51600   -7.44300   -9.55830  # c1,c,c1
	 7  110.77000   41.45300  -10.60400    5.12900  # c1,c,hc
	 8  120.05000   44.71480  -22.73520    0.00000  # c1,cp,cp
	 9  111.00000   44.32340   -9.44540    0.00000  # cp,c1,hc
	10  118.90000   61.02260  -34.99310    0.00000  # cp,cp,cp
	11  117.94000   35.15580  -12.46820    0.00000  # cp,cp,hc
	12  107.66000   39.64100  -12.92100   -2.43180  # hc,c,hc

BondBond Coeffs

	 1    0.00000    1.53000    1.53000  # c,c,c1
	 2    3.38720    1.53000    1.10100  # c,c,hc
	 3    0.00000    1.53000    1.53000  # c,c1,c
	 4    0.00000    1.53000    1.50100  # c,c1,cp
	 5    3.38720    1.53000    1.10100  # c,c1,hc
	 6    0.00000    1.53000    1.53000  # c1,c,c1
	 7    3.38720    1.53000    1.10100  # c1,c,hc
	 8   12.06760    1.50100    1.41700  # c1,cp,cp
	 9    2.91680    1.50100    1.10100  # cp,c1,hc
	10   68.28560    1.41700    1.41700  # cp,cp,cp
	11    1.07950    1.41700    1.09820  # cp,cp,hc
	12    5.33160    1.10100    1.10100  # hc,c,hc

BondAngle Coeffs

	 1    8.01600    8.01600    1.53000    1.53000  # c,c,c1
	 2   20.75400   11.42100    1.53000    1.10100  # c,c,hc
	 3    8.01600    8.01600    1.53000    1.53000  # c,c1,c
	 4    0.00000    0.00000    1.53000    1.50100  # c,c1,cp
	 5   20.75400   11.42100    1.53000    1.10100  # c,c1,hc
	 6    8.01600    8.01600    1.53000    1.53000  # c1,c,c1
	 7   11.42100   20.75400    1.53000    1.10100  # c1,c,hc
	 8   47.05790   31.07710    1.50100    1.41700  # c1,cp,cp
	 9   11.77170   26.46080    1.50100    1.10100  # cp,c1,hc
	10   28.87080   28.87080    1.41700    1.41700  # cp,cp,cp
	11   24.21830   20.00330    1.41700    1.09820  # cp,cp,hc
	12   18.10300   18.10300    1.10100    1.10100  # hc,c,hc

Dihedral Coeffs

	 1    0.00000    0.00000    0.05140    0.00000   -0.14300    0.00000  # c,c,c1,c
	 2    0.00000    0.00000    0.00000    0.00000    0.15800  180.00000  # c,c,c1,cp
	 3    0.00000    0.00000    0.03160    0.00000   -0.16810    0.00000  # c,c,c1,hc
	 4    0.00000    0.00000    0.05140    0.00000   -0.14300    0.00000  # c,c1,c,c1
	 5    0.00000    0.00000    0.03160    0.00000   -0.16810    0.00000  # c,c1,c,hc
	 6   -0.28020    0.00000   -0.06780    0.00000   -0.01220    0.00000  # c,c1,cp,cp
	 7    0.00000    0.00000    0.03160    0.00000   -0.16810    0.00000  # c1,c,c,hc
	 8    0.00000    0.00000    0.00000    0.00000    0.15800  180.00000  # c1,c,c1,cp
	 9    0.00000    0.00000    0.03160    0.00000   -0.16810    0.00000  # c1,c,c1,hc
	10    0.00000    0.00000    4.40720    0.00000    0.00000    0.00000  # c1,cp,cp,cp
	11    0.00000    0.00000    1.55900    0.00000    0.00000    0.00000  # c1,cp,cp,hc
	12   -0.02280    0.00000    0.02800    0.00000   -0.18630    0.00000  # cp,c1,c,hc
	13   -0.28010    0.00000   -0.06780    0.00000   -0.01220    0.00000  # cp,cp,c1,hc
	14    8.36670    0.00000    1.19320    0.00000    0.00000    0.00000  # cp,cp,cp,cp
	15    0.00000    0.00000    3.96610    0.00000    0.00000    0.00000  # cp,cp,cp,hc
	16   -0.14320    0.00000    0.06170    0.00000   -0.10830    0.00000  # hc,c,c,hc
	17   -0.14320    0.00000    0.06170    0.00000   -0.10830    0.00000  # hc,c,c1,hc
	18    0.00000    0.00000    1.87690    0.00000    0.00000    0.00000  # hc,cp,cp,hc

MiddleBondTorsion Coeffs

	 1  -17.78700   -7.18770    0.00000    1.53000  # c,c,c1,c
	 2    0.00000    0.00000    0.00000    1.53000  # c,c,c1,cp
	 3  -14.87900   -3.65810   -0.31380    1.53000  # c,c,c1,hc
	 4  -17.78700   -7.18770    0.00000    1.53000  # c,c1,c,c1
	 5  -14.87900   -3.65810   -0.31380    1.53000  # c,c1,c,hc
	 6    0.00000    0.00000    0.00000    1.50100  # c,c1,cp,cp
	 7  -14.87900   -3.65810   -0.31380    1.53000  # c1,c,c,hc
	 8    0.00000    0.00000    0.00000    1.53000  # c1,c,c1,cp
	 9  -14.87900   -3.65810   -0.31380    1.53000  # c1,c,c1,hc
	10    0.00000    9.17920    0.00000    1.41700  # c1,cp,cp,cp
	11    0.00000    3.94210    0.00000    1.41700  # c1,cp,cp,hc
	12    0.00000    0.00000    0.00000    1.53000  # cp,c1,c,hc
	13   -5.56790    1.40830    0.30100    1.50100  # cp,cp,c1,hc
	14   27.59890   -2.31200    0.00000    1.41700  # cp,cp,cp,cp
	15    0.00000   -1.15210    0.00000    1.41700  # cp,cp,cp,hc
	16  -14.26100   -0.53220   -0.48640    1.53000  # hc,c,c,hc
	17  -14.26100   -0.53220   -0.48640    1.53000  # hc,c,c1,hc
	18    0.00000    4.82280    0.00000    1.41700  # hc,cp,cp,hc

EndBondTorsion Coeffs

	 1   -0.07320    0.00000    0.00000   -0.07320    0.00000    0.00000    1.53000    1.53000  # c,c,c1,c
	 2    0.00000    0.00000    0.00000    0.00000    0.00000    0.00000    1.53000    1.50100  # c,c,c1,cp
	 3    0.24860    0.24220   -0.09250    0.08140    0.05910    0.22190    1.53000    1.10100  # c,c,c1,hc
	 4   -0.07320    0.00000    0.00000   -0.07320    0.00000    0.00000    1.53000    1.53000  # c,c1,c,c1
	 5    0.24860    0.24220   -0.09250    0.08140    0.05910    0.22190    1.53000    1.10100  # c,c1,c,hc
	 6    0.00000    0.00000    0.00000    0.00000    0.00000    0.00000    1.53000    1.41700  # c,c1,cp,cp
	 7    0.08140    0.05910    0.22190    0.24860    0.24220   -0.09250    1.53000    1.10100  # c1,c,c,hc
	 8    0.00000    0.00000    0.00000    0.00000    0.00000    0.00000    1.53000    1.50100  # c1,c,c1,cp
	 9    0.08140    0.05910    0.22190    0.24860    0.24220   -0.09250    1.53000    1.10100  # c1,c,c1,hc
	10    0.00000    0.24210    0.00000    0.00000   -0.69180    0.00000    1.50100    1.41700  # c1,cp,cp,cp
	11    0.00000   -0.48790    0.00000    0.00000   -1.79700    0.00000    1.50100    1.09820  # c1,cp,cp,hc
	12    0.00000    0.00000    0.00000    0.00000    0.00000    0.00000    1.50100    1.10100  # cp,c1,c,hc
	13    1.39970    0.77560    0.00000   -0.58350    1.12200    0.39780    1.41700    1.10100  # cp,cp,c1,hc
	14   -0.11850    6.32040    0.00000   -0.11850    6.32040    0.00000    1.41700    1.41700  # cp,cp,cp,cp
	15    0.00000   -0.46690    0.00000    0.00000   -6.89580    0.00000    1.41700    1.09820  # cp,cp,cp,hc
	16    0.21300    0.31200    0.07770    0.21300    0.31200    0.07770    1.10100    1.10100  # hc,c,c,hc
	17    0.21300    0.31200    0.07770    0.21300    0.31200    0.07770    1.10100    1.10100  # hc,c,c1,hc
	18    0.00000   -0.68900    0.00000    0.00000   -0.68900    0.00000    1.09820    1.09820  # hc,cp,cp,hc

AngleTorsion Coeffs

	 1    0.38860   -0.31390    0.13890    0.38860   -0.31390    0.13890  112.67000  112.67000  # c,c,c1,c
	 2    0.00000    0.00000    0.00000    0.00000    0.00000    0.00000  112.67000  108.40000  # c,c,c1,cp
	 3   -0.24540    0.00000   -0.11360    0.31130    0.45160   -0.19880  112.67000  110.77000  # c,c,c1,hc
	 4    0.38860   -0.31390    0.13890    0.38860   -0.31390    0.13890  112.67000  112.67000  # c,c1,c,c1
	 5   -0.24540    0.00000   -0.11360    0.31130    0.45160   -0.19880  112.67000  110.77000  # c,c1,c,hc
	 6    0.00000    0.00000    0.00000    0.00000    0.00000    0.00000  108.40000  120.05000  # c,c1,cp,cp
	 7    0.31130    0.45160   -0.19880   -0.24540    0.00000   -0.11360  112.67000  110.77000  # c1,c,c,hc
	 8    0.00000    0.00000    0.00000    0.00000    0.00000    0.00000  112.67000  108.40000  # c1,c,c1,cp
	 9    0.31130    0.45160   -0.19880   -0.24540    0.00000   -0.11360  112.67000  110.77000  # c1,c,c1,hc
	10    0.00000   -4.46830    0.00000    0.00000    3.89870    0.00000  120.05000  118.90000  # c1,cp,cp,cp
	11    0.00000    3.46010    0.00000    0.00000   -0.12420    0.00000  120.05000  117.94000  # c1,cp,cp,hc
	12    0.00000    0.00000    0.00000    0.00000    0.00000    0.00000  108.40000  110.77000  # cp,c1,c,hc
	13    4.62660    0.16320    0.04610    0.22510    0.65480    0.12370  120.05000  111.00000  # cp,cp,c1,hc
	14    1.97670    1.02390    0.00000    1.97670    1.02390    0.00000  118.90000  118.90000  # cp,cp,cp,cp
	15    0.00000    2.71470    0.00000    0.00000    2.50140    0.00000  118.90000  117.94000  # cp,cp,cp,hc
	16   -0.80850    0.55690   -0.24660   -0.80850    0.55690   -0.24660  110.77000  110.77000  # hc,c,c,hc
	17   -0.80850    0.55690   -0.24660   -0.80850    0.55690   -0.24660  110.77000  110.77000  # hc,c,c1,hc
	18    0.00000    2.45010    0.00000    0.00000    2.45010    0.00000  117.94000  117.94000  # hc,cp,cp,hc

AngleAngleTorsion Coeffs

	 1  -22.04500  112.67000  112.67000  # c,c,c1,c
	 2    0.00000  112.67000  108.40000  # c,c,c1,cp
	 3  -16.16400  112.67000  110.77000  # c,c,c1,hc
	 4  -22.04500  112.67000  112.67000  # c,c1,c,c1
	 5  -16.16400  112.67000  110.77000  # c,c1,c,hc
	 6    0.00000  108.40000  120.05000  # c,c1,cp,cp
	 7  -16.16400  112.67000  110.77000  # c1,c,c,hc
	 8    0.00000  112.67000  108.40000  # c1,c,c1,cp
	 9  -16.16400  112.67000  110.77000  # c1,c,c1,hc
	10  -14.40970  120.05000  118.90000  # c1,cp,cp,cp
	11    4.44440  120.05000  117.94000  # c1,cp,cp,hc
	12    0.00000  108.40000  110.77000  # cp,c1,c,hc
	13   -5.88880  120.05000  111.00000  # cp,cp,c1,hc
	14    0.00000  118.90000  118.90000  # cp,cp,cp,cp
	15   -4.81410  118.90000  117.94000  # cp,cp,cp,hc
	16  -12.56400  110.77000  110.77000  # hc,c,c,hc
	17  -12.56400  110.77000  110.77000  # hc,c,c1,hc
	18    0.35980  117.94000  117.94000  # hc,cp,cp,hc

BondBond13 Coeffs

	 1    0.00000    1.53000    1.53000  # c,c,c1,c
	 2    0.00000    1.53000    1.50100  # c,c,c1,cp
	 3    0.00000    1.53000    1.10100  # c,c,c1,hc
	 4    0.00000    1.53000    1.53000  # c,c1,c,c1
	 5    0.00000    1.53000    1.10100  # c,c1,c,hc
	 6    0.00000    1.53000    1.41700  # c,c1,cp,cp
	 7    0.00000    1.53000    1.10100  # c1,c,c,hc
	 8    0.00000    1.53000    1.50100  # c1,c,c1,cp
	 9    0.00000    1.53000    1.10100  # c1,c,c1,hc
	10    2.50850    1.50100    1.41700  # c1,cp,cp,cp
	11    0.87430    1.50100    1.09820  # c1,cp,cp,hc
	12    0.00000    1.50100    1.10100  # cp,c1,c,hc
	13   -3.48260    1.41700    1.10100  # cp,cp,c1,hc
	14   53.00000    1.41700    1.41700  # cp,cp,cp,cp
	15   -6.27410    1.41700    1.09820  # cp,cp,cp,hc
	16    0.00000    1.10100    1.10100  # hc,c,c,hc
	17    0.00000    1.10100    1.10100  # hc,c,c1,hc
	18   -1.70770    1.09820    1.09820  # hc,cp,cp,hc

Improper Coeffs

	 1    0.00000    0.00000  # c,c,c1,hc
	 2    0.00000    0.00000  # c,c,hc,hc
	 3    0.00000    0.00000  # c,c1,c1,hc
	 4    0.00000    0.00000  # c,c1,hc,hc
	 5    0.00000    0.00000  # c,hc,hc,hc
	 6    0.00000    0.00000  # c1,c,c,cp
	 7    0.00000    0.00000  # c1,c,c,hc
	 8    0.00000    0.00000  # c1,c,cp,hc
	 9    7.81530    0.00000  # cp,c1,cp,cp
	10    4.89120    0.00000  # cp,cp,cp,hc

AngleAngle Coeffs

	 1   -1.31990    0.00000    0.11840  112.67000  110.77000  110.77000  # c,c,c1,hc
	 2    0.27380   -0.48250    0.27380  110.77000  110.77000  107.66000  # c,c,hc,hc
	 3    0.00000    0.00000    0.11840  112.67000  110.77000  110.77000  # c,c1,c1,hc
	 4    0.00000   -0.48250    0.00000  110.77000  110.77000  107.66000  # c,c1,hc,hc
	 5   -0.31570   -0.31570   -0.31570  107.66000  107.66000  107.66000  # c,hc,hc,hc
	 6    0.00000    0.00000    0.00000  112.67000  108.40000  108.40000  # c1,c,c,cp
	 7   -1.31990   -1.31990    0.11840  112.67000  110.77000  110.77000  # c1,c,c,hc
	 8    2.04030    0.00000    1.08270  108.40000  110.77000  111.00000  # c1,c,cp,hc
	 9    0.00000    0.00000    0.00000  120.05000  120.05000  118.90000  # cp,c1,cp,cp
	10    0.00000    0.00000    0.00000  118.90000  117.94000  117.94000  # cp,cp,cp,hc

Atoms

       1       1   1 -0.1060  16.9510047553  21.6879288300   4.0249881279  # c
       2       1   4  0.0530  16.9550579212  20.9394860654   3.2346714492  # hc
       3       1   4  0.0530  17.6289455424  22.5482540086   3.7398448721  # hc
       4       1   2 -0.0530  15.5342240179  22.3303994296   4.1802596980  # c1
       5       1   4  0.0530  15.4288164245  22.9871161047   3.2985180393  # hc
       6       1   3  0.0000  15.5558816820  23.3527292409   5.2788835409  # cp
       7       1   3 -0.1268  15.5311502016  24.6716131483   4.8296569336  # cp
       8       1   4  0.1268  15.4748901009  24.9525969747   3.6668627516  # hc
       9       1   3 -0.1268  15.7007762345  25.6583449657   5.7719419780  # cp
      10       1   4  0.1268  15.7909703943  26.7161758862   5.3781601643  # hc
      11       1   3 -0.1268  15.7137507061  25.4128921562   7.1522723610  # cp
      12       1   4  0.1268  15.6239108802  26.1676756336   7.9529644167  # hc
      13       1   3 -0.1268  15.6530260711  24.0703556335   7.5534240097  # cp
      14       1   4  0.1268  15.6411134163  23.7086676852   8.6523089088  # hc
      15       1   3 -0.1268  15.6816279791  23.0998844146   6.6232228320  # cp
      16       1   4  0.1268  15.4363783658  22.0205095080   6.9644107725  # hc
      17       1   1 -0.1060  14.4202022543  21.3176269544   4.3458528872  # c
      18       1   4  0.0530  13.7447838834  21.6361965611   5.1267868046  # hc
      19       1   4  0.0530  14.7964531838  20.4300773189   4.8384201426  # hc
      20       1   2 -0.0530  13.5986680638  20.9646725518   2.9976114895  # c1
      21       1   4  0.0530  12.6657883573  20.3405550293   3.4133152944  # hc
      22       1   3  0.0000  14.3330820954  19.8696695599   2.1312895839  # cp
      23       1   3 -0.1268  14.1229224764  18.5662023973   2.5784714125  # cp
      24       1   4  0.1268  13.5800214346  18.2657554034   3.5509619831  # hc
      25       1   3 -0.1268  14.5583921062  17.5060945265   1.8243763920  # cp
      26       1   4  0.1268  14.4416580892  16.4559929241   2.1944668422  # hc
      27       1   3 -0.1268  15.2874215729  17.7796889599   0.6758457867  # cp
      28       1   4  0.1268  15.7868647706  16.9397063825   0.0511385788  # hc
      29       1   3 -0.1268  15.6485583052  19.0746099118   0.3377522995  # cp
      30       1   4  0.1268  16.4700255285  19.1592739760  -0.3620964987  # hc
      31       1   3 -0.1268  15.1534428105  20.1703173409   1.0596993814  # cp
      32       1   4  0.1268  15.4649726198  21.1807652141   0.8539146782  # hc
      33       1   1 -0.1060  13.2066192770  22.1530253624   2.0841001957  # c
      34       1   4  0.0530  12.8334641118  21.6956011165   1.2101626198  # hc
      35       1   4  0.0530  14.1123404774  22.7885080198   1.9292913974  # hc
      36       1   2 -0.0530  12.2215393829  23.0992969068   2.6793064289  # c1
      37       1   4  0.0530  12.6298152427  23.5693847677   3.5842050999  # hc
      38       1   3  0.0000  10.8512475212  22.5090882761   2.9474483239  # cp
      39       1   3 -0.1268  10.1627316239  22.9773183708   4.0613333152  # cp
      40       1   4  0.1268  10.5986540961  23.6742806484   4.7983530869  # hc
      41       1   3 -0.1268   8.8208563829  22.6358620412   4.2232137290  # cp
      42       1   4  0.1268   8.0544063863  22.9601342537   5.0461588608  # hc
      43       1   3 -0.1268   8.2635531824  21.6772055777   3.3802770938  # cp
      44       1   4  0.1268   7.2051402515  21.3132059026   3.5928306546  # hc
      45       1   3 -0.1268   8.9943027616  21.1061387455   2.2895810214  # cp
      46       1   4  0.1268   8.5522263176  20.4594196046   1.4749099952  # hc
      47       1   3 -0.1268  10.3087281166  21.5595099853   2.0947019516  # cp
      48       1   4  0.1268  10.8106049116  21.1195889100   1.2168590391  # hc
      49       1   1 -0.1060  11.9714920913  24.2758248171   1.8058772920  # c
      50       1   4  0.0530  12.7629820629  25.0408913802   1.7589922643  # hc
      51       1   4  0.0530  11.0755697616  24.7556409859   2.2219675321  # hc
      52       1   2 -0.0530  11.6555738376  23.9238288235   0.3363107156  # c1
      53       1   4  0.0530  11.4149010862  22.8202628636   0.2562684309  # hc
      54       1   3  0.0000  10.5333016945  24.7449308718  -0.2681103818  # cp
      55       1   3 -0.1268   9.3129711522  24.1256002261  -0.0621795582  # cp
      56       1   4  0.1268   9.2304313433  23.2491576422   0.6275054317  # hc
      57       1   3 -0.1268   8.1938199558  24.7257648525  -0.5503148427  # cp
      58       1   4  0.1268   7.1573809580  24.4134965807  -0.3078762259  # hc
      59       1   3 -0.1268   8.1719894280  25.9542600088  -1.2055125933  # cp
      60       1   4  0.1268   7.2558223088  26.3852142012  -1.5415892607  # hc
      61       1   3 -0.1268   9.3814285452  26.5788394694  -1.3603496121  # cp
      62       1   4  0.1268   9.4341311370  27.5745096412  -1.8567925535  # hc
      63       1   3 -0.1268  10.5309041657  25.9728005908  -0.8757895375  # cp
      64       1   4  0.1268  11.4559537258  26.5972481965  -0.9101526966  # hc
      65       1   1 -0.1060  12.9097563965  24.1068280265  -0.5120660849  # c
      66       1   4  0.0530  13.1055611504  25.1867740462  -0.4735838678  # hc
      67       1   4  0.0530  13.7547723935  23.7586799562   0.1010163693  # hc
      68       1   2 -0.0530  12.9149303357  23.5635255476  -1.9821193420  # c1
      69       1   4  0.0530  11.8813745279  23.1989095811  -2.1906742205  # hc
      70       1   3  0.0000  14.0128245924  22.4682578090  -2.2554335164  # cp
      71       1   3 -0.1268  13.7223129567  21.5283570930  -3.2437984569  # cp
      72       1   4  0.1268  12.8598441590  21.6486621210  -3.9108961962  # hc
      73       1   3 -0.1268  14.5504392553  20.3981745925  -3.4924436737  # cp
      74       1   4  0.1268  14.2567911673  19.7294937609  -4.3657028261  # hc
      75       1   3 -0.1268  15.7734557435  20.3292412089  -2.7302087692  # cp
      76       1   4  0.1268  16.5232263149  19.5467049044  -2.8084633988  # hc
      77       1   3 -0.1268  16.0999953225  21.2594919153  -1.8212058715  # cp
      78       1   4  0.1268  17.0686207826  21.1861293135  -1.2763748154  # hc
      79       1   3 -0.1268  15.1490955169  22.2451437388  -1.5003493829  # cp
      80       1   4  0.1268  15.5785198562  23.0176866419  -0.7957555838  # hc
      81       1   1 -0.1060  13.1988679586  24.7868451453  -2.9897449995  # c
      82       1   4  0.0530  12.1809739642  25.1273958455  -3.1484286547  # hc
      83       1   4  0.0530  13.4483220236  24.4003759272  -3.9943459445  # hc
      84       1   2 -0.0530  14.1590791899  25.9764282642  -2.6779335431  # c1
      85       1   4  0.0530  14.5541353541  26.2891255679  -3.6601425101  # hc
      86       1   3  0.0000  15.4282707725  25.6419623093  -1.9029358657  # cp
      87       1   3 -0.1268  16.3091418888  24.8186629008  -2.5962122305  # cp
      88       1   4  0.1268  16.1592774912  24.2906881991  -3.6173372303  # hc
      89       1   3 -0.1268  17.5394681140  24.4945247024  -1.9810652927  # cp
      90       1   4  0.1268  18.2708093006  23.8928578734  -2.5239958268  # hc
      91       1   3 -0.1268  17.8211399640  24.9556692726  -0.7022011401  # cp
      92       1   4  0.1268  18.7630364321  24.6037999039  -0.1722841523  # hc
      93       1   3 -0.1268  16.9893797357  25.8923087543  -0.0924684331  # cp
      94       1   4  0.1268  17.2312397098  26.2965851314   0.9465732382  # hc
      95       1   3 -0.1268  15.7932702463  26.2345048346  -0.6964928429  # cp
      96       1   4  0.1268  15.1362721324  26.9912177629  -0.1129031755  # hc
      97       1   1 -0.1590  17.5777173557  20.8848541855   5.1139370889  # c
      98       1   4  0.0530  18.1441257707  21.5039991896   5.7915705438  # hc
      99       1   4  0.0530  16.7763102617  20.3414907843   5.7080031887  # hc
     100       1   4  0.0530  18.2919701341  20.1971644167   4.6609354024  # hc
     101       1   1 -0.1590  13.4769861657  27.2483425131  -2.0216525688  # c
     102       1   4  0.0530  14.2181691339  28.0606498200  -2.0577837526  # hc
     103       1   4  0.0530  12.5546133338  27.6080303108  -2.5387131923  # hc
     104       1   4  0.0530  13.3023673398  27.0847381540  -1.0069267051  # hc
     105       2   1 -0.1060  15.3387388319  16.3095454072  14.4749289974  # c
     106       2   4  0.0530  15.3468109733  15.9297051479  15.5376242145  # hc
     107       2   4  0.0530  16.3195616837  16.6976367095  14.3453910849  # hc
     108       2   2 -0.0530  15.1909172179  15.1597861370  13.4363046546  # c1
     109       2   4  0.0530  16.0306886513  14.4406646032  13.5562392024  # hc
     110       2   3  0.0000  13.9786879770  14.2816583150  13.6227958541  # cp
     111       2   3 -0.1268  13.6087939449  13.2725761799  12.7653981990  # cp
     112       2   4  0.1268  14.2546759157  13.0042670264  11.9361148117  # hc
     113       2   3 -0.1268  12.3913388331  12.6150161685  12.8458362833  # cp
     114       2   4  0.1268  12.2168540723  11.7004186852  12.2210957735  # hc
     115       2   3 -0.1268  11.5966850247  12.8781700810  13.9484690953  # cp
     116       2   4  0.1268  10.6145499926  12.3240643881  14.0754960688  # hc
     117       2   3 -0.1268  11.9649177818  13.8608144164  14.8826123030  # cp
     118       2   4  0.1268  11.4095610529  14.0810162293  15.8704971973  # hc
     119       2   3 -0.1268  13.2066917959  14.5010046937  14.7298150570  # cp
     120       2   4  0.1268  13.3902368130  15.2428019541  15.5508789827  # hc
     121       2   1 -0.1060  15.0506292595  15.5699304612  11.9844735487  # c
     122       2   4  0.0530  14.3858955731  14.9874081024  11.2546994029  # hc
     123       2   4  0.0530  14.6497159390  16.6428798968  11.8310598026  # hc
     124       2   2 -0.0530  16.4185956790  15.5859972758  11.3067459395  # c1
     125       2   4  0.0530  16.0638380710  15.8926781036  10.2382483165  # hc
     126       2   3  0.0000  16.9002726624  14.0618832714  11.0510541957  # cp
     127       2   3 -0.1268  17.4500808941  13.1677517958  11.9106308732  # cp
     128       2   4  0.1268  17.5924307952  13.1699091364  12.9861917604  # hc
     129       2   3 -0.1268  17.9187418509  11.9377853849  11.3785743698  # cp
     130       2   4  0.1268  18.4099918935  11.3144860581  12.0710564836  # hc
     131       2   3 -0.1268  17.9090094394  11.5484314250  10.0558379096  # cp
     132       2   4  0.1268  18.3520208580  10.5636309150   9.7744856641  # hc
     133       2   3 -0.1268  17.2682431861  12.4143884466   9.2241136632  # cp
     134       2   4  0.1268  17.1579754182  12.0353948815   8.2059986448  # hc
     135       2   3 -0.1268  16.7376146759  13.5845612878   9.7521889043  # cp
     136       2   4  0.1268  16.1722428767  14.1428335141   9.0299200589  # hc
     137       2   1 -0.1060  17.1033997439  17.1101142977  11.7700231567  # c
     138       2   4  0.0530  17.5989023660  17.5450380042  10.8751218140  # hc
     139       2   4  0.0530  16.2096888759  17.7438836340  11.8361122232  # hc
     140       2   2 -0.0530  18.0111747073  17.6757962767  13.0481677634  # c1
     141       2   4  0.0530  17.2545146185  18.2837886324  13.6020932286  # hc
     142       2   3  0.0000  18.7809230376  16.9722594322  14.1913813302  # cp
     143       2   3 -0.1268  19.5999110267  17.6162555926  15.0707518138  # cp
     144       2   4  0.1268  19.7259675104  18.7545131731  15.0908846409  # hc
     145       2   3 -0.1268  20.2762864550  16.9992006125  16.1388735465  # cp
     146       2   4  0.1268  20.9511422171  17.5813640443  16.8443685603  # hc
     147       2   3 -0.1268  20.0148145471  15.6481748745  16.3514322423  # cp
     148       2   4  0.1268  20.5319095396  15.0710898130  17.2002760327  # hc
     149       2   3 -0.1268  19.1920101774  14.9787898128  15.4677392025  # cp
     150       2   4  0.1268  18.9252016119  13.9498687908  15.6485834408  # hc
     151       2   3 -0.1268  18.5911368764  15.6138711590  14.4023300411  # cp
     152       2   4  0.1268  17.9510428088  15.0020073141  13.7624500148  # hc
     153       2   1 -0.1060  19.1111872433  18.6090095627  12.4833885706  # c
     154       2   4  0.0530  19.6505129886  18.0191985834  11.7679090866  # hc
     155       2   4  0.0530  19.8624971913  18.9174266249  13.2085229818  # hc
     156       2   2 -0.0530  18.7560706753  19.9031860883  11.7328699313  # c1
     157       2   4  0.0530  18.1803743614  19.5764939441  10.8805317629  # hc
     158       2   3  0.0000  20.0629645154  20.4931599718  11.1925169778  # cp
     159       2   3 -0.1268  20.4262480463  20.2250164581   9.8723669658  # cp
     160       2   4  0.1268  19.7413647261  19.5955753824   9.2113314386  # hc
     161       2   3 -0.1268  21.6237868733  20.6669883406   9.2718700877  # cp
     162       2   4  0.1268  21.8933401030  20.3344287633   8.2968503010  # hc
     163       2   3 -0.1268  22.5287211721  21.4091184707  10.0424378694  # cp
     164       2   4  0.1268  23.4807281794  21.6726792695   9.6275453126  # hc
     165       2   3 -0.1268  22.1471785825  21.7132514319  11.3391449676  # cp
     166       2   4  0.1268  22.6255880901  22.4837146297  11.8535710663  # hc
     167       2   3 -0.1268  21.0119518034  21.1559703657  11.9211118892  # cp
     168       2   4  0.1268  20.7914193575  21.4548582199  13.0034052444  # hc
     169       2   1 -0.1060  17.9132398948  21.0373749406  12.4775794557  # c
     170       2   4  0.0530  18.0856516541  21.9262185545  11.8825171450  # hc
     171       2   4  0.0530  16.8711262400  20.7554742007  12.3948109477  # hc
     172       2   2 -0.0530  18.2478367759  21.4382696740  13.8986670758  # c1
     173       2   4  0.0530  19.0639485805  20.7406327761  14.2448028144  # hc
     174       2   3  0.0000  18.6286758796  22.9107373211  14.0345108704  # cp
     175       2   3 -0.1268  19.9035920696  23.2583572770  14.4968552793  # cp
     176       2   4  0.1268  20.5443024384  22.4238635129  14.8001414069  # hc
     177       2   3 -0.1268  20.3250608680  24.5578483242  14.5503904631  # cp
     178       2   4  0.1268  21.3226160825  24.8328802131  14.9508525214  # hc
     179       2   3 -0.1268  19.4249891943  25.5293189874  14.3149613697  # cp
     180       2   4  0.1268  19.8038804313  26.6233769411  14.2643373331  # hc
     181       2   3 -0.1268  18.1571414751  25.2500101022  13.8711372941  # cp
     182       2   4  0.1268  17.4243687868  26.0044149265  13.5693797101  # hc
     183       2   3 -0.1268  17.7240259030  23.9206866686  13.7160743538  # cp
     184       2   4  0.1268  16.6486644402  23.7203285625  13.4917330329  # hc
     185       2   1 -0.1060  16.9380457769  21.0686902677  14.7961652837  # c
     186       2   4  0.0530  16.4900351950  20.0438717219  14.6020978643  # hc
     187       2   4  0.0530  16.1320591398  21.8115856138  14.5550187880  # hc
     188       2   2 -0.0530  17.1556038753  21.1685312032  16.3906474332  # c1
     189       2   4  0.0530  16.1106023888  21.0147257492  16.6891081228  # hc
     190       2   3  0.0000  17.8723236190  19.9432413960  17.0503918103  # cp
     191       2   3 -0.1268  19.0553032335  20.1948928936  17.8196641490  # cp
     192       2   4  0.1268  19.5849422099  21.2138827796  17.8205540102  # hc
     193       2   3 -0.1268  19.5897787812  19.1097592370  18.5704081037  # cp
     194       2   4  0.1268  20.5095819514  19.2130598889  19.1404261579  # hc
     195       2   3 -0.1268  19.0000220129  17.8291992129  18.5797373290  # cp
     196       2   4  0.1268  19.5172693923  17.0033216329  19.1658335622  # hc
     197       2   3 -0.1268  17.8024895396  17.6952754255  17.8019899749  # cp
     198       2   4  0.1268  17.3246725311  16.6793218025  17.9219347023  # hc
     199       2   3 -0.1268  17.2779784106  18.6736177057  17.0297727029  # cp
     200       2   4  0.1268  16.3466243758  18.5067956068  16.3934727584  # hc
     201       2   1 -0.1590  14.3092532355  17.5414144433  14.4193208628  # c
     202       2   4  0.0530  13.4984382439  17.3487436588  13.7913563549  # hc
     203       2   4  0.0530  14.7407038359  18.3738033012  13.8825742283  # hc
     204       2   4  0.0530  13.9743720931  17.9148652594  15.4215918951  # hc
     205       2   1 -0.1590  17.5425395899  22.5325815009  16.9327616882  # c
     206       2   4  0.0530  18.6031441385  22.7485982539  16.7427058383  # hc
     207       2   4  0.0530  17.2245155652  22.3774906448  18.0281204859  # hc
     208       2   4  0.0530  16.8864114038  23.3751745402  16.4940816307  # hc
     209       3   1 -0.1060   7.9304537650   7.5625364518  20.7351671309  # c
     210       3   4  0.0530   8.0515298811   8.5350030023  20.1852527521  # hc
     211       3   4  0.0530   8.1669782259   6.7540557943  19.9437422342  # hc
     212       3   2 -0.0530   8.9747569929   7.6001215030  21.8778648103  # c1
     213       3   4  0.0530   9.9150545247   7.8527758187  21.3996390132  # hc
     214       3   3  0.0000   9.1232236535   6.3742858643  22.7646948862  # cp