LAMMPS data file Created by PSP

        2432  atoms
        2416  bonds
        4800  angles
        7056  dihedrals
           0  impropers

           2  atom types
           2  bond types
           3  angle types
           3  dihedral types
           0  improper types

           0  33.42539610391754 xlo xhi
           0  33.42539610391754 ylo yhi
           0  33.42539610391754 zlo zhi

Masses

           1  12.01 # c3
           2  1.008 # hc

Pair Coeffs

           1  0.1078 3.397709531243626 # c3
           2  0.0208 2.600176998764394 # hc

Bond Coeffs

           1  232.52 1.538 # c3,c3
           2  375.92 1.097 # c3,hc

Angle Coeffs

           1  38.96 107.58 # hc,c3,hc
           2  64.888 111.51 # c3,c3,c3
           3  46.816 109.8 # c3,c3,hc

Dihedral Coeffs

           1  1 0.12 3 0 # hc,c3,c3,hc
           2  3 0.13 3 0 0.29 2 180 0.11 1 0 # c3,c3,c3,c3
           3  2 0.08 3 0 0.08 3 0 # hc,c3,c3,c3

Atoms

       1       1   1 -0.0768792180491662     20.667      0.954     31.903
       2       1   1 -0.06895447305501981     20.258      2.012     30.879
       3       1   1 -0.06580140005508675     20.927      3.373     31.131
       4       1   1 -0.06546435133643977     20.397      4.066       32.4
       5       1   1 -0.06545042768651546     20.851      5.531       32.5
       6       1   1 -0.06545017948692887     22.351      5.662     32.811
       7       1   1 -0.06545017745546566      22.79      7.123     33.002
       8       1   1 -0.06545017744756064      22.77      7.917     31.688
       9       1   1 -0.06545017744754572     23.441      9.286     31.851
      10       1   1 -0.06545017744754571       23.4     10.071     30.535
      11       1   1 -0.06545017744754571     24.155     11.404     30.658
      12       1   1 -0.06545017744754571      23.99     12.293     29.414
      13       1   1 -0.06545017744754571     24.672     11.703      28.17
      14       1   1 -0.06545017744754571     24.602     12.673     26.985
      15       1   1 -0.06545017744754571      25.26     12.061     25.739
      16       1   1 -0.06545017744754571     25.087     12.929     24.483
      17       1   1 -0.06545017744754571     25.938     14.208     24.527
      18       1   1 -0.06545017744754571      25.81     15.056     23.249
      19       1   1 -0.06545017744754571     26.331     14.388     21.959
      20       1   1 -0.06545017744754571     27.786     13.884      22.02
      21       1   1 -0.06545017744754571     28.838     14.951     22.376
      22       1   1 -0.06545017744754571     29.043     16.021     21.282
      23       1   1 -0.06545017744754571      28.25     17.311     21.551
      24       1   1 -0.06545017744754571     28.671     18.472     20.638
      25       1   1 -0.06545017744754571     28.399     18.188     19.149
      26       1   1 -0.06545017744754571     28.588     19.442     18.281
      27       1   1 -0.06545017744754571      27.33     20.325     18.258
      28       1   1 -0.06545017744754571     27.602     21.645     17.523
      29       1   1 -0.06545017744754571     26.321     22.447     17.233
      30       1   1 -0.06545017744754571     25.495     22.832     18.476
      31       1   1 -0.06545017744754571     26.259     23.625     19.554
      32       1   1 -0.06545017744754571     26.931     24.915     19.058
      33       1   1 -0.06545017744754571     25.938     25.907     18.428
      34       1   1 -0.06545017744754571      26.54     27.308     18.234
      35       1   1 -0.06545017744754571     27.761     27.306     17.302
      36       1   1 -0.06545017744754571     28.206     28.739     16.973
      37       1   1 -0.06545017744754571     29.446     28.767     16.053
      38       1   1 -0.06545017744754571     29.123     29.116      14.59
      39       1   1 -0.06545017744754571     28.324     28.013     13.877
      40       1   1 -0.06545017744754571     28.016     28.352     12.411
      41       1   1 -0.06545017744754571     29.264     28.322     11.515
      42       1   1 -0.06545017744754572     28.877      28.48     10.037
      43       1   1 -0.06545017744756064     30.095     28.466      9.099
      44       1   1 -0.06545017745546566     30.946     29.739      9.222
      45       1   1 -0.06545017948692887     32.008     29.803      8.114
      46       1   1 -0.06545042768651546      33.01     30.954      8.312
      47       1   1 -0.06546435133643977     32.387     32.365      8.363
      48       1   1 -0.06580140005508675     31.531     32.743      7.142
      49       1   1 -0.06895447305501981     32.333     32.757      5.834
      50       1   1 -0.0768792180491662     31.489     33.284      4.677
      51       1   2 0.027287831691225867     21.774       0.86     31.943
      52       1   2 0.027287831691225867     20.281      1.213      32.91
      53       1   2 0.027287831691225867      20.24     -0.028      31.61
      54       1   2 0.0321908035406296     20.559      1.655      29.87
      55       1   2 0.0321908035406296     19.152      2.123     30.879
      56       1   2 0.03270259347591514     20.723       4.02      30.25
      57       1   2 0.03270259347591514     22.027      3.232     31.201
      58       1   2 0.03272470591766552     20.726      3.513     33.305
      59       1   2 0.03272470591766552     19.285      4.053      32.38
      60       1   2 0.03272508565556845     20.273      6.018     33.316
      61       1   2 0.03272508565556845     20.601      6.055     31.553
      62       1   2 0.032725088711950574     22.957      5.205     32.001
      63       1   2 0.032725088711950574     22.571      5.108     33.751
      64       1   2 0.03272508872375067     23.827      7.117     33.406
      65       1   2 0.03272508872375067      22.14      7.621     33.754
      66       1   2 0.03272508872377283      21.72      8.069     31.361
      67       1   2 0.03272508872377283     23.307      7.343       30.9
      68       1   2 0.032725088723772854     22.914      9.864     32.644
      69       1   2 0.032725088723772854       24.5      9.142     32.162
      70       1   2 0.032725088723772854     23.868      9.454     29.739
      71       1   2 0.032725088723772854     22.341     10.268     30.259
      72       1   2 0.032725088723772854     23.761     11.964     31.533
      73       1   2 0.032725088723772854     25.234      11.21     30.839
      74       1   2 0.032725088723772854     22.909     12.454      29.21
      75       1   2 0.032725088723772854     24.442     13.284     29.637
      76       1   2 0.032725088723772854     24.168     10.757     27.882
      77       1   2 0.032725088723772854     25.737     11.482     28.401
      78       1   2 0.032725088723772854     25.122     13.616     27.261
      79       1   2 0.032725088723772854     23.536     12.907     26.765
      80       1   2 0.032725088723772854     26.343     11.888      25.93
      81       1   2 0.032725088723772854     24.792     11.072     25.537
      82       1   2 0.032725088723772854     24.014     13.191     24.348
      83       1   2 0.032725088723772854     25.396     12.311     23.615
      84       1   2 0.032725088723772854     27.003     13.955     24.717
      85       1   2 0.032725088723772854       25.6     14.839     25.375
      86       1   2 0.032725088723772854     26.346     16.014     23.411
      87       1   2 0.032725088723772854      24.74      15.32       23.1
      88       1   2 0.032725088723772854     25.673     13.532       21.7
      89       1   2 0.032725088723772854     26.228       15.1     21.115
      90       1   2 0.032725088723772854     27.852     13.056     22.758
      91       1   2 0.032725088723772854     28.043     13.436     21.037
      92       1   2 0.032725088723772854     28.619     15.412     23.362
      93       1   2 0.032725088723772854     29.803     14.415     22.505
      94       1   2 0.032725088723772854     30.125     16.278     21.251
      95       1   2 0.032725088723772854     28.775     15.607     20.287
      96       1   2 0.032725088723772854     28.417     17.634     22.602
      97       1   2 0.032725088723772854     27.163     17.137     21.424
      98       1   2 0.032725088723772854     28.107     19.374     20.956
      99       1   2 0.032725088723772854     29.752     18.688     20.784
     100       1   2 0.032725088723772854     27.374      17.78     19.012
     101       1   2 0.032725088723772854     29.118     17.417     18.798
     102       1   2 0.032725088723772854     29.463     20.026     18.643
     103       1   2 0.032725088723772854     28.809     19.121      17.24
     104       1   2 0.032725088723772854     27.009     20.547     19.296
     105       1   2 0.032725088723772854     26.511     19.773     17.747
     106       1   2 0.032725088723772854     28.315     22.261     18.111
     107       1   2 0.032725088723772854     28.088     21.425     16.547
     108       1   2 0.032725088723772854     26.596     23.364     16.672
     109       1   2 0.032725088723772854     25.673     21.848     16.556
     110       1   2 0.032725088723772854     25.081     21.911     18.941
     111       1   2 0.032725088723772854     24.616     23.425     18.144
     112       1   2 0.032725088723772854     27.032     22.973     20.014
     113       1   2 0.032725088723772854     25.545     23.885     20.367
     114       1   2 0.032725088723772854     27.424     25.398     19.929
     115       1   2 0.032725088723772854     27.728      24.66     18.328
     116       1   2 0.032725088723772854     25.046     26.003     19.084
     117       1   2 0.032725088723772854     25.593     25.523     17.442
     118       1   2 0.032725088723772854     25.751     27.961     17.803
     119       1   2 0.032725088723772854     26.825      27.73     19.224
     120       1   2 0.032725088723772854     28.603     26.781     17.803
     121       1   2 0.032725088723772854     27.514     26.757     16.371
     122       1   2 0.032725088723772854     28.464     29.249     17.929
     123       1   2 0.032725088723772854     27.365     29.306     16.519
     124       1   2 0.032725088723772854     30.006     27.806     16.097
     125       1   2 0.032725088723772854     30.139      29.55     16.433
     126       1   2 0.032725088723772854      30.09     29.265     14.068
     127       1   2 0.032725088723772854     28.565     30.077     14.549
     128       1   2 0.032725088723772854      28.87     27.046     13.936
     129       1   2 0.032725088723772854     27.348     27.888     14.392
     130       1   2 0.032725088723772854     27.285     27.602     12.036
     131       1   2 0.032725088723772854     27.534     29.352     12.351
     132       1   2 0.032725088723772854     29.936     29.152     11.808
     133       1   2 0.032725088723772854     29.801     27.358     11.652
     134       1   2 0.032725088723772854     28.212     27.636       9.75
     135       1   2 0.032725088723772854     28.302     29.422      9.891
     136       1   2 0.03272508872377283     30.721     27.571      9.305
     137       1   2 0.03272508872377283     29.719     28.384      8.056
     138       1   2 0.03272508872375067     30.283     30.629      9.147
     139       1   2 0.03272508872375067     31.456     29.753     10.209
     140       1   2 0.032725088711950574     31.517     29.888       7.12
     141       1   2 0.032725088711950574     32.584     28.851      8.112
     142       1   2 0.03272508565556845     33.564     30.785      9.261
     143       1   2 0.03272508565556845     33.765     30.914      7.498
     144       1   2 0.03272470591766552     31.766      32.46      9.278
     145       1   2 0.03272470591766552     33.209     33.106      8.466
     146       1   2 0.03270259347591514      31.12     33.761       7.32
     147       1   2 0.03270259347591514     30.663     32.056       7.05
     148       1   2 0.0321908035406296      33.23     33.402      5.948
     149       1   2 0.0321908035406296     32.667     31.728      5.581
     150       1   2 0.027287831691225867     32.086     33.262       3.74
     151       1   2 0.027287831691225867     31.177     34.332      4.873
     152       1   2 0.027287831691225867     30.587      32.65      4.537
     153       2   1 -0.0768792180491662     28.649      3.957      0.324
     154       2   1 -0.06895447305501981     27.658      4.737      1.188
     155       2   1 -0.06580140005508675     26.345      3.973      1.423
     156       2   1 -0.06546435133643977     25.493      3.857      0.145
     157       2   1 -0.06545042768651546     24.071      3.349      0.433
     158       2   1 -0.06545017948692887     24.046      1.863      0.828
     159       2   1 -0.06545017745546566     22.619      1.327      1.028
     160       2   1 -0.06545017744756064     21.951      1.898      2.289
     161       2   1 -0.06545017744754572     20.638      1.171      2.604
     162       2   1 -0.06545017744754571     19.978      1.762      3.855
     163       2   1 -0.06545017744754571     18.713       0.98      4.239
     164       2   1 -0.06545017744754571     17.932      1.646      5.384
     165       2   1 -0.06545017744754571     18.693      1.611      6.719
     166       2   1 -0.06545017744754571     17.835      2.162      7.862
     167       2   1 -0.06545017744754571     18.616       2.15      9.186
     168       2   1 -0.06545017744754571     17.856       2.83     10.336
     169       2   1 -0.06545017744754571     16.659      1.999     10.825
     170       2   1 -0.06545017744754571     15.925      2.648     12.012
     171       2   1 -0.06545017744754571     16.754      2.781     13.307
     172       2   1 -0.06545017744754571     17.378      1.471     13.826
     173       2   1 -0.06545017744754571     16.381       0.33       14.1
     174       2   1 -0.06545017744754571      15.44       0.59     15.296
     175       2   1 -0.06545017744754571     14.064       1.13     14.867
     176       2   1 -0.06545017744754571     13.035      1.113     16.008
     177       2   1 -0.06545017744754571      13.43      2.029      17.18
     178       2   1 -0.06545017744754571     12.285      2.197     18.191
     179       2   1 -0.06545017744754571     11.299      3.299      17.77
     180       2   1 -0.06545017744754571     10.082      3.331     18.705
     181       2   1 -0.06545017744754571        9.2      4.574     18.502
     182       2   1 -0.06545017744754571      8.628      4.746     17.081
     183       2   1 -0.06545017744754571       7.81      3.552     16.551
     184       2   1 -0.06545017744754571      6.637      3.121     17.446
     185       2   1 -0.06545017744754571      5.623      4.251     17.695
     186       2   1 -0.06545017744754571      4.306      3.743     18.302
     187       2   1 -0.06545017744754571      4.502      3.065     19.666
     188       2   1 -0.06545017744754571      3.152      2.756     20.329
     189       2   1 -0.06545017744754571       3.32      2.055     21.694
     190       2   1 -0.06545017744754571      3.081       2.98     22.899
     191       2   1 -0.06545017744754571       4.17      4.055      23.05
     192       2   1 -0.06545017744754571      3.941      4.969     24.264
     193       2   1 -0.06545017744754571      4.166      4.251     25.604
     194       2   1 -0.06545017744754572      4.112      5.248     26.772
     195       2   1 -0.06545017744756064      4.321      4.575     28.138
     196       2   1 -0.06545017745546566      3.123      3.709     28.556
     197       2   1 -0.06545017948692887      3.257      3.249     30.015
     198       2   1 -0.06545042768651546      2.187      2.219     30.418
     199       2   1 -0.06546435133643977      0.727      2.698     30.273
     200       2   1 -0.06580140005508675      0.389      3.993     31.033
     201       2   1 -0.06895447305501981      0.569      3.855     32.551
     202       2   1 -0.0768792180491662      0.077      5.104     33.278
     203       2   2 0.027287831691225867     28.838      2.953       0.76
     204       2   2 0.027287831691225867     28.264      3.845      -0.71
     205       2   2 0.027287831691225867     29.611      4.508      0.277
     206       2   2 0.0321908035406296     28.132       4.93      2.174
     207       2   2 0.0321908035406296     27.449      5.722      0.718
     208       2   2 0.03270259347591514     25.767      4.522      2.198
     209       2   2 0.03270259347591514     26.576      2.963      1.823
     210       2   2 0.03272470591766552     25.986      3.182     -0.586
     211       2   2 0.03272470591766552     25.408      4.862     -0.325
     212       2   2 0.03272508565556845     23.461      3.484     -0.486
     213       2   2 0.03272508565556845     23.617      3.972      1.232
     214       2   2 0.032725088711950574     24.629      1.698      1.758
     215       2   2 0.032725088711950574     24.528       1.27      0.019
     216       2   2 0.03272508872375067      22.68      0.221      1.121
     217       2   2 0.03272508872375067     21.997      1.556      0.135
     218       2   2 0.03272508872377283     21.737      2.978       2.14
     219       2   2 0.03272508872377283     22.642       1.79      3.155
     220       2   2 0.032725088723772854     19.945      1.268      1.739
     221       2   2 0.032725088723772854     20.847      0.092      2.772
     222       2   2 0.032725088723772854     20.706      1.722      4.694
     223       2   2 0.032725088723772854     19.714      2.826      3.663
     224       2   2 0.032725088723772854     18.041      0.922      3.356
     225       2   2 0.032725088723772854     18.985     -0.059      4.526
     226       2   2 0.032725088723772854     17.694      2.697      5.114
     227       2   2 0.032725088723772854     16.969      1.103      5.505
     228       2   2 0.032725088723772854     19.613      2.227      6.638
     229       2   2 0.032725088723772854     18.986      0.564      6.951
     230       2   2 0.032725088723772854     16.921      1.537       7.96
     231       2   2 0.032725088723772854     17.528      3.205      7.622
     232       2   2 0.032725088723772854     18.867      1.104      9.468
     233       2   2 0.032725088723772854     19.573      2.698       9.04
     234       2   2 0.032725088723772854     17.512       3.84     10.019
     235       2   2 0.032725088723772854     18.577      2.963     11.169
     236       2   2 0.032725088723772854     16.988      0.971     11.091
     237       2   2 0.032725088723772854     15.925      1.899      9.999
     238       2   2 0.032725088723772854     15.008      2.058     12.219
     239       2   2 0.032725088723772854     15.581      3.661     11.709
     240       2   2 0.032725088723772854     17.568      3.518     13.145
     241       2   2 0.032725088723772854     16.117       3.22     14.102
     242       2   2 0.032725088723772854     18.137      1.116     13.096
     243       2   2 0.032725088723772854     17.936      1.695      14.76
     244       2   2 0.032725088723772854     15.813       0.07     13.183
     245       2   2 0.032725088723772854     16.987      -0.57     14.342
     246       2   2 0.032725088723772854     15.284     -0.374     15.828
     247       2   2 0.032725088723772854     15.918      1.289     16.015
     248       2   2 0.032725088723772854     13.662      0.501     14.044
     249       2   2 0.032725088723772854     14.152      2.167     14.485
     250       2   2 0.032725088723772854     12.061      1.442     15.588
     251       2   2 0.032725088723772854     12.904      0.073     16.377
     252       2   2 0.032725088723772854     13.757      3.024     16.805
     253       2   2 0.032725088723772854     14.292      1.572     17.713
     254       2   2 0.032725088723772854      11.75       1.23     18.322
     255       2   2 0.032725088723772854     12.719      2.475     19.176
     256       2   2 0.032725088723772854     10.954      3.116     16.732
     257       2   2 0.032725088723772854     11.821       4.28     17.799
     258       2   2 0.032725088723772854      9.481      2.407     18.569
     259       2   2 0.032725088723772854     10.434      3.338     19.761
     260       2   2 0.032725088723772854      8.366      4.542     19.235
     261       2   2 0.032725088723772854      9.798      5.478     18.749
     262       2   2 0.032725088723772854      9.462      4.946     16.373
     263       2   2 0.032725088723772854      7.993      5.657     17.065
     264       2   2 0.032725088723772854      8.483      2.682       16.4
     265       2   2 0.032725088723772854      7.413      3.821     15.547
     266       2   2 0.032725088723772854      6.121      2.274     16.944
     267       2   2 0.032725088723772854      7.029      2.742     18.413
     268       2   2 0.032725088723772854      5.388      4.754     16.732
     269       2   2 0.032725088723772854      6.064      5.013     18.376
     270       2   2 0.032725088723772854      3.627      4.616     18.421
     271       2   2 0.032725088723772854      3.821      3.032     17.596
     272       2   2 0.032725088723772854      5.052       2.11     19.523
     273       2   2 0.032725088723772854      5.111      3.721     20.321
     274       2   2 0.032725088723772854      2.581      2.081     19.653
     275       2   2 0.032725088723772854      2.556       3.69     20.436
     276       2   2 0.032725088723772854      4.319      1.572     21.782
     277       2   2 0.032725088723772854      2.571      1.235     21.754
     278       2   2 0.032725088723772854      3.068      2.341     23.806
     279       2   2 0.032725088723772854      2.081      3.461      22.81
     280       2   2 0.032725088723772854      5.172      3.578     23.118
     281       2   2 0.032725088723772854      4.158      4.705      22.15
     282       2   2 0.032725088723772854      4.654      5.819     24.187
     283       2   2 0.032725088723772854      2.912      5.388     24.229
     284       2   2 0.032725088723772854      3.375      3.487     25.739
     285       2   2 0.032725088723772854      5.157      3.747     25.598
     286       2   2 0.032725088723772854      4.916      6.004     26.633
     287       2   2 0.032725088723772854      3.139       5.79     26.765
     288       2   2 0.03272508872377283      5.246      3.958     28.118
     289       2   2 0.03272508872377283      4.465      5.378     28.893
     290       2   2 0.03272508872375067      2.189      4.301     28.442
     291       2   2 0.03272508872375067      3.063      2.813     27.901
     292       2   2 0.032725088711950574      3.221      4.126     30.696
     293       2   2 0.032725088711950574      4.253      2.771     30.151
     294       2   2 0.03272508565556845      2.317      1.308     29.794
     295       2   2 0.03272508565556845      2.369      1.906     31.468
     296       2   2 0.03272470591766552      0.493      2.844     29.198
     297       2   2 0.03272470591766552      0.056      1.888     30.632
     298       2   2 0.03270259347591514     -0.673      4.241      30.82
     299       2   2 0.03270259347591514      1.002      4.837     30.652
     300       2   2 0.0321908035406296     -0.002      2.976     32.921
     301       2   2 0.0321908035406296      1.642      3.709     32.796
     302       2   2 0.027287831691225867      0.239      4.986     34.371
     303       2   2 0.027287831691225867     -1.008      5.255     33.096
     304       2   2 0.027287831691225867      0.639      5.998     32.931
     305       3   1 -0.0768792180491662      0.582     32.593     13.388
     306       3   1 -0.06895447305501981      0.994     31.548     14.425
     307       3   1 -0.06580140005508675      1.639     30.305     13.792
     308       3   1 -0.06546435133643977      0.628     29.455       13.0
     309       3   1 -0.06545042768651546      1.198     28.082     12.607
     310       3   1 -0.06545017948692887      2.277     28.183     11.516
     311       3   1 -0.06545017745546566      2.784     26.807     11.056
     312       3   1 -0.06545017744756064      3.628     26.104     12.131
     313       3   1 -0.06545017744754572      4.324     24.858     11.571
     314       3   1 -0.06545017744754571      5.149     24.163     12.659
     315       3   1 -0.06545017744754571       5.93     22.969     12.088
     316       3   1 -0.06545017744754571      6.632     22.145      13.18
     317       3   1 -0.06545017744754571      7.771     22.917     13.864
     318       3   1 -0.06545017744754571      8.532     22.027     14.851
     319       3   1 -0.06545017744754571      9.649     22.817     15.551
     320       3   1 -0.06545017744754571     10.347     22.013     16.659
     321       3   1 -0.06545017744754571     11.241     20.893     16.103
     322       3   1 -0.06545017744754571     11.985     20.118     17.204
     323       3   1 -0.06545017744754571     13.004     20.944     18.019
     324       3   1 -0.06545017744754571     14.072     21.678     17.186
     325       3   1 -0.06545017744754571     14.922      20.78     16.267
     326       3   1 -0.06545017744754571     15.876     19.831     17.023
     327       3   1 -0.06545017744754571     15.303     18.412     17.185
     328       3   1 -0.06545017744754571     16.351     17.398     17.668
     329       3   1 -0.06545017744754571     16.896     17.726     19.069
     330       3   1 -0.06545017744754571     17.745     16.579     19.639
     331       3   1 -0.06545017744754571     16.882     15.502     20.317
     332       3   1 -0.06545017744754571     17.737     14.294     20.727
     333       3   1 -0.06545017744754571     16.988     13.311     21.643
     334       3   1 -0.06545017744754571     15.697     12.715     21.047
     335       3   1 -0.06545017744754571     15.867     11.994     19.696
     336       3   1 -0.06545017744754571     16.913     10.868     19.688
     337       3   1 -0.06545017744754571     16.619      9.766     20.721
     338       3   1 -0.06545017744754571     17.461        8.5     20.494
     339       3   1 -0.06545017744754571     18.971      8.764     20.599
     340       3   1 -0.06545017744754571     19.764      7.449      20.57
     341       3   1 -0.06545017744754571     21.287      7.685     20.652
     342       3   1 -0.06545017744754571     21.887      7.381     22.036
     343       3   1 -0.06545017744754571     21.434      8.379     23.114
     344       3   1 -0.06545017744754571     22.046      8.086     24.492
     345       3   1 -0.06545017744754571     23.553       8.38     24.553
     346       3   1 -0.06545017744754572     24.076      8.254     25.991
     347       3   1 -0.06545017744756064     25.584      8.529     26.102
     348       3   1 -0.06545017745546566     26.433       7.41     25.479
     349       3   1 -0.06545017948692887     27.921      7.594     25.815
     350       3   1 -0.06545042768651546     28.831      6.615     25.052
     351       3   1 -0.06546435133643977     28.539       5.12     25.297
     352       3   1 -0.06580140005508675     28.575      4.683     26.771
     353       3   1 -0.06895447305501981     29.951      4.886     27.419
     354       3   1 -0.0768792180491662     29.988      4.299     28.827
     355       3   2 0.027287831691225867      1.448     32.868     12.748
     356       3   2 0.027287831691225867     -0.241      32.21     12.751
     357       3   2 0.027287831691225867      0.223     33.507     13.906
     358       3   2 0.0321908035406296      1.732     32.014     15.114
     359       3   2 0.0321908035406296      0.109     31.255      15.03
     360       3   2 0.03270259347591514      2.068      29.69     14.613
     361       3   2 0.03270259347591514      2.475     30.622     13.133
     362       3   2 0.03272470591766552      0.304     29.996     12.086
     363       3   2 0.03272470591766552     -0.272     29.283      13.63
     364       3   2 0.03272508565556845      0.363     27.455     12.227
     365       3   2 0.03272508565556845      1.605     27.585     13.513
     366       3   2 0.032725088711950574      3.138     28.785     11.875
     367       3   2 0.032725088711950574      1.845     28.705     10.633
     368       3   2 0.03272508872375067      3.409     26.959     10.149
     369       3   2 0.03272508872375067      1.926      26.16     10.768
     370       3   2 0.03272508872377283      2.975     25.801     12.977
     371       3   2 0.03272508872377283        4.4     26.809     12.515
     372       3   2 0.032725088723772854      3.558     24.152     11.178
     373       3   2 0.032725088723772854      4.994     25.157     10.734
     374       3   2 0.032725088723772854      5.862     24.898     13.089
     375       3   2 0.032725088723772854      4.469      23.81     13.466
     376       3   2 0.032725088723772854      5.225     22.297     11.553
     377       3   2 0.032725088723772854       6.68     23.328      11.35
     378       3   2 0.032725088723772854      5.889      21.82      13.94
     379       3   2 0.032725088723772854      7.052     21.231     12.705
     380       3   2 0.032725088723772854      7.352     23.783     14.419
     381       3   2 0.032725088723772854      8.477     23.298     13.093
     382       3   2 0.032725088723772854       8.97     21.168     14.297
     383       3   2 0.032725088723772854      7.823     21.633     15.614
     384       3   2 0.032725088723772854     10.399     23.156     14.803
     385       3   2 0.032725088723772854      9.206     23.725     16.017
     386       3   2 0.032725088723772854      9.589     21.585     17.353
     387       3   2 0.032725088723772854      10.97     22.727     17.237
     388       3   2 0.032725088723772854     11.963     21.308     15.368