ITEM: TIMESTEP
0
ITEM: NUMBER OF ATOMS
1248
ITEM: BOX BOUNDS pp pp pp
0.0000000000000000e+00 2.2843109019262421e+01
0.0000000000000000e+00 2.2843109019262421e+01
0.0000000000000000e+00 2.2843109019262421e+01
ITEM: ATOMS id mol type q xs ys zs ix iy iz
1247 12 2 0.0272878 0.0955019 0.260509 0.142261 0 0 0
139 2 2 0.0272878 0.292044 0.234076 0.0639368 0 0 1
148 2 2 0.0327251 0.486353 0.159093 0.0558605 0 0 1
146 2 2 0.0327247 0.388367 0.205795 0.0584014 0 0 1
147 2 2 0.0327247 0.384161 0.129899 0.0453337 0 0 1
201 2 2 0.0327247 0.0238259 0.0664562 0.124245 1 0 0
208 2 2 0.0272878 0.019215 0.0806826 0.0195755 1 0 0
1227 12 2 0.0327251 0.330967 0.322959 0.218907 0 0 0
1248 12 2 0.0272878 0.167215 0.23194 0.148289 0 0 0
197 2 2 0.0327251 0.0418361 0.0888873 0.239943 1 0 0
1244 12 2 0.0321908 0.0943648 0.152909 0.167982 0 0 0
1236 12 2 0.0327251 0.274661 0.0804878 0.24038 0 0 0
150 2 2 0.0327251 0.471523 0.264279 0.0180109 0 0 1
135 2 1 -0.0654644 0.00656288 0.022771 0.133747 1 0 0
1243 12 2 0.0327026 0.137295 0.132375 0.0418957 0 0 0
1225 12 2 0.0327251 0.4201 0.268951 0.23736 0 0 0
555 6 2 0.0272878 0.0470273 0.32958 0.0837472 0 0 1
546 6 1 -0.0654502 0.473992 0.0587111 0.207273 0 0 0
1239 12 2 0.0327251 0.19376 0.138643 0.200545 0 0 0
108 2 1 -0.0654644 0.397447 0.17171 0.0258182 0 0 1
1171 12 1 -0.0654502 0.307278 0.197118 0.196507 0 0 0
1172 12 1 -0.0654502 0.319482 0.133891 0.174987 0 0 0
1173 12 1 -0.0654502 0.273265 0.0872067 0.192832 0 0 0
1174 12 1 -0.0654504 0.209469 0.101571 0.17452 0 0 0
1175 12 1 -0.0654644 0.202667 0.116127 0.108613 0 0 0
1176 12 1 -0.0658014 0.138136 0.121733 0.0887029 0 0 0
1177 12 1 -0.0689545 0.100757 0.167368 0.122629 0 0 0
1178 12 1 -0.0768792 0.126721 0.229809 0.12263 0 0 0
562 6 2 0.0327247 0.0473482 0.247576 0.0236879 0 0 1
607 6 2 0.0327251 0.451598 0.0775752 0.169258 0 0 0
1246 12 2 0.0272878 0.136262 0.244578 0.0779462 0 0 0
1245 12 2 0.0321908 0.0570254 0.168915 0.1028 0 0 0
612 6 2 0.0327251 0.464041 0.0357902 0.0785878 0 0 0
1232 12 2 0.0327251 0.265355 0.212948 0.179386 0 0 0
1233 12 2 0.0327251 0.341037 0.225734 0.177874 0 0 0
1234 12 2 0.0327251 0.362254 0.120108 0.191693 0 0 0
1235 12 2 0.0327251 0.323524 0.1344 0.127217 0 0 0
109 2 1 -0.0654504 0.464301 0.169828 0.0145383 0 0 1
1237 12 2 0.0327251 0.285851 0.0451582 0.17328 0 0 0
1238 12 2 0.0327251 0.181504 0.0640554 0.185543 0 0 0
134 2 1 -0.0654504 0.0197933 0.00640698 0.19844 1 0 0
1240 12 2 0.0327247 0.225657 0.156933 0.0985117 0 0 0
1241 12 2 0.0327247 0.223834 0.0817886 0.0825461 0 0 0
1242 12 2 0.0327026 0.117543 0.0786738 0.0929697 0 0 0
606 6 2 0.0327251 0.44319 0.0273895 0.226644 0 0 0
105 2 1 -0.0768792 0.275547 0.238281 0.0190534 0 0 1
142 2 2 0.0321908 0.278876 0.144543 0.00134791 0 0 1
140 2 2 0.0272878 0.227731 0.241602 0.0213101 0 0 1
1111 11 2 0.0327251 0.493143 0.291547 0.13994 0 0 0
133 2 1 -0.0654502 0.00698559 0.055997 0.243285 1 0 0
455 5 2 0.0321908 0.130123 0.321626 0.246416 0 0 0
141 2 2 0.0272878 0.292418 0.279298 0.000765211 0 0 1
595 6 2 0.0327251 0.389878 0.0654144 0.4806 0 0 0
1228 12 2 0.0327251 0.252275 0.278702 0.273579 0 0 0
4 1 1 -0.0654644 0.0584023 0.0094164 0.45694 0 1 0
1223 12 2 0.0327251 0.408504 0.303761 0.36708 0 0 0
1231 12 2 0.0327251 0.274228 0.173917 0.282734 0 0 0
589 6 2 0.0327251 0.394617 0.23862 0.48134 0 0 0
1230 12 2 0.0327251 0.349906 0.186014 0.280555 0 0 0
601 6 2 0.0327251 0.477596 0.014858 0.321476 0 0 0
196 2 2 0.0327251 0.0101366 0.038063 0.287724 1 0 0
1170 12 1 -0.0654502 0.308011 0.202462 0.264035 0 0 0
313 4 1 -0.0768792 0.133224 0.171968 0.317706 0 0 0
314 4 1 -0.0689545 0.140807 0.156154 0.382851 0 0 0
315 4 1 -0.0658014 0.108673 0.199582 0.423497 0 0 0
348 4 2 0.0272878 0.153092 0.137996 0.290315 0 0 0
349 4 2 0.0272878 0.154418 0.213887 0.307626 0 0 0
350 4 2 0.0321908 0.123625 0.111969 0.39011 0 0 0
351 4 2 0.0321908 0.187584 0.155074 0.393732 0 0 0
353 4 2 0.0327026 0.0623602 0.201328 0.410896 0 0 0
1166 12 1 -0.0654502 0.427054 0.276987 0.331959 0 0 0
1169 12 1 -0.0654502 0.296656 0.265601 0.286579 0 0 0
1168 12 1 -0.0654502 0.34005 0.313395 0.265125 0 0 0
1222 12 2 0.0327251 0.409945 0.232823 0.338749 0 0 0
347 4 2 0.0272878 0.0867248 0.175148 0.305999 0 0 0
537 6 1 -0.0654502 0.347791 0.236639 0.491722 0 0 0
605 6 2 0.0327251 0.443974 0.124531 0.26919 0 0 0
588 6 2 0.0327251 0.331336 0.281427 0.486093 0 0 0
599 6 2 0.0327251 0.474258 0.0274211 0.430881 0 0 0
542 6 1 -0.0654502 0.478913 0.0658159 0.402339 0 0 0
44 1 2 0.0327251 0.0848623 0.00712248 0.366296 0 1 0
358 4 2 0.0327251 0.103693 0.303052 0.494448 0 0 0
1229 12 2 0.0327251 0.296394 0.265516 0.334514 0 0 0
43 1 2 0.0327247 0.0479996 0.0558416 0.450568 0 1 0
597 6 2 0.0327251 0.389194 0.0665351 0.369992 0 0 0
538 6 1 -0.0654502 0.317595 0.196254 0.445863 0 0 0
539 6 1 -0.0654502 0.325568 0.129418 0.454456 0 0 0
540 6 1 -0.0654502 0.389879 0.106884 0.456492 0 0 0
541 6 1 -0.0654502 0.417945 0.0952666 0.395655 0 0 0
1165 12 1 -0.0654502 0.494789 0.274143 0.338197 0 0 0
354 4 2 0.0327247 0.10012 0.135957 0.493644 0 0 0
590 6 2 0.0327251 0.334035 0.207787 0.402408 0 0 0
591 6 2 0.0327251 0.270551 0.206015 0.445556 0 0 0
592 6 2 0.0327251 0.303615 0.117751 0.495315 0 0 0
593 6 2 0.0327251 0.301579 0.106079 0.419966 0 0 0
594 6 2 0.0327251 0.417628 0.136785 0.481802 0 0 0
596 6 2 0.0327251 0.422135 0.136542 0.371586 0 0 0
45 1 2 0.0327251 0.144358 0.0100969 0.415308 0 1 0
352 4 2 0.0327026 0.126721 0.243596 0.416927 0 0 0
454 5 2 0.0321908 0.0734281 0.294765 0.290983 0 0 0
1167 12 1 -0.0654502 0.406554 0.300039 0.271401 0 0 0
316 4 1 -0.0654644 0.113597 0.18177 0.488871 0 0 0
545 6 1 -0.0654502 0.485895 0.10924 0.25147 0 0 0
585 6 2 0.0327251 0.257987 0.261833 0.575444 0 0 0
682 7 2 0.0327251 0.309371 0.0271827 0.533442 0 1 0
259 3 2 0.0327251 0.496278 0.168021 0.749789 0 0 0
217 3 1 -0.0654502 0.443594 0.209764 0.682043 0 0 0
218 3 1 -0.0654502 0.48819 0.222681 0.632411 0 0 0
637 7 1 -0.0654502 0.364041 0.033455 0.610991 0 1 0
2 1 1 -0.0689545 0.0379189 0.018288 0.567639 0 1 0
365 4 2 0.0327251 0.150672 0.331636 0.65006 0 0 0
587 6 2 0.0327251 0.361397 0.175734 0.564204 0 0 0
583 6 2 0.0327251 0.304145 0.238618 0.671538 0 0 0
260 3 2 0.0327251 0.40871 0.242668 0.68066 0 0 0
261 3 2 0.0327251 0.422633 0.167367 0.673536 0 0 0
678 7 2 0.0327251 0.230649 0.0229252 0.68382 0 1 0
263 3 2 0.0327251 0.468175 0.210003 0.590683 0 0 0
355 4 2 0.0327247 0.159461 0.184095 0.502982 0 0 0
577 6 2 0.0327251 0.173556 0.0952127 0.734772 0 0 0
579 6 2 0.0327251 0.153538 0.162524 0.619444 0 0 0
317 4 1 -0.0654504 0.074878 0.219598 0.529698 0 0 0
318 4 1 -0.0654502 0.098035 0.282857 0.537606 0 0 0
319 4 1 -0.0654502 0.0554344 0.321573 0.57346 0 0 0
320 4 1 -0.0654502 0.0576775 0.311162 0.640462 0 0 0
356 4 2 0.0327251 0.0301224 0.220901 0.512373 0 0 0
574 6 2 0.0327251 0.0556435 0.125267 0.733591 0 0 0
578 6 2 0.0327251 0.210641 0.114123 0.634747 0 0 0
357 4 2 0.0327251 0.0718976 0.198192 0.572515 0 0 0
684 7 2 0.0327251 0.391476 0.0663279 0.589153 0 1 0
359 4 2 0.0327251 0.141438 0.281993 0.558217 0 0 0
636 7 1 -0.0654502 0.303041 0.032826 0.580664 0 1 0
362 4 2 0.0327251 0.0163574 0.326362 0.659712 0 0 0
363 4 2 0.0327251 0.0603004 0.264248 0.649642 0 0 0
40 1 2 0.0327026 0.122119 0.0283139 0.524837 0 1 0
360 4 2 0.0327251 0.0107308 0.313323 0.558094 0 0 0
576 6 2 0.0327251 0.123491 0.0767953 0.679695 0 0 0
216 3 1 -0.0654502 0.471216 0.208596 0.744044 0 0 0
581 6 2 0.0327251 0.227508 0.191111 0.725611 0 0 0
580 6 2 0.0327251 0.194526 0.239036 0.675077 0 0 0
584 6 2 0.0327251 0.25165 0.186529 0.558786 0 0 0
582 6 2 0.0327251 0.304241 0.163496 0.655426 0 0 0
265 3 2 0.0327251 0.467071 0.315541 0.628971 0 0 0
586 6 2 0.0327251 0.367805 0.249767 0.582856 0 0 0
575 6 2 0.0327251 0.0854893 0.188723 0.70294 0 0 0
685 7 2 0.0327251 0.35904 0.0488599 0.656229 0 1 0
38 1 2 0.0321908 0.0195272 0.0615141 0.55767 0 1 0
476 5 2 0.0327251 0.36188 0.332843 0.660617 0 0 0
39 1 2 0.0321908 0.0604459 0.0228662 0.609762 0 1 0
530 6 1 -0.0654502 0.095901 0.151322 0.730955 0 0 0
531 6 1 -0.0654502 0.144505 0.114035 0.701514 0 0 0
532 6 1 -0.0654502 0.181763 0.146586 0.654792 0 0 0
533 6 1 -0.0654502 0.21915 0.19799 0.678844 0 0 0
534 6 1 -0.0654502 0.279655 0.204233 0.648642 0 0 0
535 6 1 -0.0654502 0.278336 0.218835 0.582173 0 0 0
536 6 1 -0.0654502 0.341556 0.218898 0.557141 0 0 0
683 7 2 0.0327251 0.283329 0.0761199 0.586176 0 1 0
367 4 2 0.0327251 0.125617 0.287305 0.744444 0 0 0
322 4 1 -0.0654502 0.111939 0.33263 0.736978 0 0 0
269 3 2 0.0327251 0.496203 0.259044 0.509336 0 0 0
3 1 1 -0.0658014 0.0828657 0.00105333 0.519745 0 1 0
256 3 2 0.0327251 0.448308 0.216692 0.835934 0 0 0
106 2 1 -0.0689545 0.293824 0.185371 0.980907 0 0 0
107 2 1 -0.0658014 0.360636 0.182379 0.969655 0 0 0
257 3 2 0.0327251 0.403911 0.257888 0.788925 0 0 0
110 2 1 -0.0654502 0.48871 0.228534 0.990947 0 0 0
210 3 1 -0.0689545 0.253423 0.0135632 0.822558 0 0 0
568 6 2 0.0327251 0.129881 0.107893 0.931515 0 0 0
527 6 1 -0.0654502 0.136069 0.143297 0.899721 0 0 0
143 2 2 0.0321908 0.271345 0.188569 0.93856 0 0 0
144 2 2 0.0327026 0.369565 0.146998 0.938492 0 0 0
145 2 2 0.0327026 0.374094 0.22312 0.948246 0 0 0
149 2 2 0.0327251 0.474237 0.134442 0.983655 0 0 0
215 3 1 -0.0654502 0.425409 0.215312 0.793776 0 0 0
151 2 2 0.0327251 0.472632 0.23609 0.946426 0 0 0
255 3 2 0.0327251 0.347996 0.17189 0.758696 0 0 0
382 4 2 0.0327251 0.470019 0.32058 0.878223 0 0 0
569 6 2 0.0327251 0.183387 0.146639 0.892348 0 0 0
251 3 2 0.0327247 0.374431 0.0158283 0.822869 0 0 0
564 6 2 0.0327251 0.0337255 0.164148 0.958865 0 0 0
211 3 1 -0.0658014 0.294544 0.0627733 0.800207 0 0 0
212 3 1 -0.0654644 0.356739 0.0602793 0.827461 0 0 0
572 6 2 0.0327251 0.156472 0.191004 0.792969 0 0 0
214 3 1 -0.0654502 0.377113 0.167748 0.796668 0 0 0
570 6 2 0.0327251 0.126595 0.0849692 0.825843 0 0 0
207 2 2 0.0272878 0.0199284 0.0436757 0.951229 1 0 -1
245 3 2 0.0272878 0.231801 0.0592686 0.90421 0 0 0
247 3 2 0.0321908 0.21095 0.0176047 0.800491 0 0 0
249 3 2 0.0327026 0.274141 0.105257 0.809528 0 0 0
250 3 2 0.0327247 0.353723 0.068898 0.874584 0 0 0
561 6 2 0.0327026 0.100908 0.317575 0.956648 0 0 0
528 6 1 -0.0654502 0.106428 0.125775 0.841153 0 0 0
254 3 2 0.0327251 0.350086 0.1768 0.835341 0 0 0
209 3 1 -0.0768792 0.243495 0.0151647 0.889492 0 0 0
566 6 2 0.0327251 0.139016 0.208792 0.968097 0 0 0
565 6 2 0.0327251 0.025307 0.209735 0.897098 0 0 0
325 4 1 -0.0654502 0.20929 0.31449 0.848378 0 0 0
560 6 2 0.0327026 0.0372537 0.324269 0.913582 0 0 0
573 6 2 0.0327251 0.0828041 0.210016 0.804306 0 0 0
252 3 2 0.0327251 0.441124 0.103346 0.826248 0 0 0
529 6 1 -0.0654502 0.111886 0.173463 0.793116 0 0 0
213 3 1 -0.0654504 0.400823 0.104187 0.800084 0 0 0
372 4 2 0.0327251 0.204006 0.299691 0.893756 0 0 0
373 4 2 0.0327251 0.202029 0.276131 0.820507 0 0 0
375 4 2 0.0327251 0.301828 0.297315 0.838481 0 0 0
526 6 1 -0.0654502 0.115146 0.20178 0.927025 0 0 0
567 6 2 0.0327251 0.127326 0.237705 0.897816 0 0 0
383 4 2 0.0327251 0.407275 0.316007 0.921701 0 0 0
571 6 2 0.0327251 0.0601115 0.115727 0.848761 0 0 0
523 6 1 -0.0658014 0.0529256 0.317116 0.958402 0 0 0
524 6 1 -0.0654644 0.030786 0.256496 0.979593 0 0 0
525 6 1 -0.0654504 0.0485174 0.205171 0.938868 0 0 0
206 2 2 0.0272878 0.0827895 0.0416509 0.996816 1 0 -1
253 3 2 0.0327251 0.41278 0.0893685 0.755955 0 0 0
248 3 2 0.0327026 0.298411 0.0597659 0.752493 0 0 0
243 3 2 0.0272878 0.283027 0.00156975 0.913112 0 0 0
138 2 1 -0.0768792 0.0348053 0.0413781 0.996851 1 0 -1
1130 11 2 0.0327251 0.293797 0.628512 0.0396039 0 0 0
453 5 2 0.0272878 0.0635492 0.405631 0.214126 0 0 0
292 3 2 0.0327251 0.230193 0.570221 0.18357 0 0 0
979 10 2 0.0327247 0.0127684 0.607113 0.139331 0 0 0
294 3 2 0.0327251 0.323827 0.646022 0.243308 0 0 0
937 10 1 -0.0768792 0.0805279 0.542767 0.0461078 0 0 0
938 10 1 -0.0689545 0.0977307 0.536093 0.111129 0 0 0
939 10 1 -0.0658014 0.106828 0.595189 0.143415 0 0 0
971 10 2 0.0272878 0.0403316 0.568378 0.0408191 0 0 0
972 10 2 0.0272878 0.0735785 0.499779 0.0259616 0 0 0
973 10 2 0.0272878 0.115179 0.564853 0.0217705 0 0 0
975 10 2 0.0321908 0.138096 0.510223 0.114063 0 0 0
976 10 2 0.0327026 0.118671 0.585439 0.188907 0 0 0
977 10 2 0.0327026 0.143957 0.618895 0.124263 0 0 0
1061 11 1 -0.0654502 0.429327 0.46313 0.102985 0 0 0
1062 11 1 -0.0654502 0.386024 0.4318 0.144915 0 0 0
1063 11 1 -0.0654502 0.323325 0.457743 0.143573 0 0 0
1064 11 1 -0.0654502 0.281031 0.429975 0.0980179 0 0 0
1065 11 1 -0.0654502 0.292943 0.444554 0.0325499 0 0 0
1066 11 1 -0.0654502 0.298937 0.510738 0.01716 0 0 0
1067 11 1 -0.0654502 0.244587 0.547346 0.0346798 0 0 0
556 6 2 0.0272878 0.0458369 0.406998 0.0840057 0 0 1
417 5 1 -0.0768792 0.0466716 0.364233 0.231737 0 0 0
1113 11 2 0.0327251 0.462249 0.359171 0.0699617 0 0 0
1116 11 2 0.0327251 0.414965 0.458101 0.0575743 0 0 0
1117 11 2 0.0327251 0.428876 0.510295 0.112187 0 0 0
1118 11 2 0.0327251 0.384144 0.384745 0.135522 0 0 0
1119 11 2 0.0327251 0.402989 0.436051 0.18969 0 0 0
1121 11 2 0.0327251 0.325315 0.505384 0.138019 0 0 0
1122 11 2 0.0327251 0.281274 0.382248 0.103503 0 0 0
1123 11 2 0.0327251 0.236302 0.44378 0.108798 0 0 0
1060 11 1 -0.0654502 0.493185 0.440893 0.108432 0 0 0
1125 11 2 0.0327251 0.332277 0.421226 0.0180636 0 0 0
1126 11 2 0.0327251 0.338071 0.52898 0.0380843 0 0 0
295 3 2 0.0327251 0.316025 0.632984 0.168125 0 0 0
1128 11 2 0.0327251 0.206052 0.529834 0.0121957 0 0 0
1129 11 2 0.0327251 0.236645 0.541948 0.0816617 0 0 0
1120 11 2 0.0327251 0.303976 0.450295 0.18691 0 0 0
1131 11 2 0.0327251 0.218476 0.637463 0.0490317 0 0 0
891 9 2 0.0327251 0.00928501 0.549647 0.224826 1 0 0
940 10 1 -0.0654644 0.0517318 0.634794 0.142318 0 0 0
974 10 2 0.0321908 0.0637936 0.510743 0.133748 0 0 0
1068 11 1 -0.0654502 0.251136 0.613997 0.0229254 0 0 0
1124 11 2 0.0327251 0.256786 0.426236 0.00678064 0 0 0
233 3 1 -0.0654502 0.257893 0.580461 0.221418 0 0 0
293 3 2 0.0327251 0.289607 0.544736 0.22438 0 0 0
234 3 1 -0.0654502 0.29134 0.638427 0.208959 0 0 0
1110 11 2 0.0327251 0.479054 0.353106 0.183401 0 0 0
521 6 1 -0.0768792 0.0600846 0.368525 0.0590509 0 0 1
1136 11 2 0.0327247 0.132077 0.660181 0.00518546 0 0 0
557 6 2 0.0272878 0.10805 0.369311 0.0563032 0 0 1
978 10 2 0.0327247 0.0518779 0.661787 0.102613 0 0 0
981 10 2 0.0327251 0.0461676 0.647541 0.236777 0 0 0
452 5 2 0.0272878 0.0364274 0.33541 0.194734 0 0 0
223 3 1 -0.0654502 0.494448 0.412545 0.495879 0 0 0
271 3 2 0.0327251 0.44351 0.337607 0.466976 0 0 0
225 3 1 -0.0654502 0.38871 0.453766 0.469007 0 0 0
226 3 1 -0.0654502 0.388192 0.438693 0.402598 0 0 0
227 3 1 -0.0654502 0.42564 0.478429 0.362091 0 0 0
228 3 1 -0.0654502 0.413728 0.545176 0.366334 0 0 0
229 3 1 -0.0654502 0.361098 0.568611 0.330605 0 0 0
230 3 1 -0.0654502 0.299761 0.55283 0.355546 0 0 0
231 3 1 -0.0654502 0.250363 0.595512 0.335729 0 0 0
232 3 1 -0.0654502 0.21924 0.579324 0.277381 0 0 0
1226 12 2 0.0327251 0.330323 0.354071 0.288819 0 0 0
451 5 2 0.0272878 0.00557667 0.373137 0.254939 0 0 0
275 3 2 0.0327251 0.470324 0.502733 0.478337 0 0 0
69 1 2 0.0327251 0.496844 0.64208 0.25095 0 0 0
277 3 2 0.0327251 0.362315 0.493276 0.475974 0 0 0
278 3 2 0.0327251 0.342722 0.438203 0.387339 0 0 0
279 3 2 0.0327251 0.403712 0.39385 0.397074 0 0 0
280 3 2 0.0327251 0.471941 0.470931 0.372471 0 0 0
281 3 2 0.0327251 0.420165 0.46409 0.316551 0 0 0
282 3 2 0.0327251 0.409755 0.558931 0.412042 0 0 0
283 3 2 0.0327251 0.452754 0.567321 0.349281 0 0 0
284 3 2 0.0327251 0.365189 0.553783 0.285174 0 0 0
285 3 2 0.0327251 0.365425 0.616436 0.329867 0 0 0
286 3 2 0.0327251 0.287937 0.507815 0.343723 0 0 0
287 3 2 0.0327251 0.301982 0.554286 0.403531 0 0 0
288 3 2 0.0327251 0.216699 0.595777 0.369993 0 0 0
290 3 2 0.0327251 0.199976 0.535512 0.281761 0 0 0
291 3 2 0.0327251 0.182079 0.609054 0.271195 0 0 0
423 5 1 -0.0654502 0.138032 0.515896 0.466721 0 0 0
462 5 2 0.0327251 0.0990861 0.510818 0.380098 0 0 0
464 5 2 0.0327251 0.0986482 0.538624 0.482279 0 0 0
465 5 2 0.0327251 0.169778 0.550268 0.45579 0 0 0
468 5 2 0.0327251 0.254131 0.473299 0.490601 0 0 0
460 5 2 0.0327251 0.0465635 0.438369 0.447431 0 0 0
458 5 2 0.0327247 0.0334642 0.423735 0.341335 0 0 0
802 8 2 0.0327251 0.435635 0.622206 0.482889 0 0 0
420 5 1 -0.0654644 0.0634526 0.394673 0.364857 0 0 0
422 5 1 -0.0654502 0.122593 0.481413 0.409974 0 0 0
421 5 1 -0.0654504 0.08482 0.425955 0.421199 0 0 0
457 5 2 0.0327026 0.134648 0.414024 0.304128 0 0 0
289 3 2 0.0327251 0.266877 0.640581 0.333901 0 0 0
461 5 2 0.0327251 0.109673 0.394391 0.44741 0 0 0
469 5 2 0.0327251 0.210378 0.416902 0.46206 0 0 0
459 5 2 0.0327247 0.038034 0.356037 0.377885 0 0 0
419 5 1 -0.0658014 0.113409 0.375287 0.323039 0 0 0
748 8 1 -0.0654502 0.454714 0.666034 0.486143 0 0 0
463 5 2 0.0327251 0.163253 0.469164 0.387565 0 0 0
456 5 2 0.0327026 0.147026 0.351916 0.348222 0 0 0
1224 12 2 0.0327251 0.429242 0.341231 0.262404 0 0 0
418 5 1 -0.0689545 0.0921185 0.335011 0.272608 0 0 0
276 3 2 0.0327251 0.365809 0.41891 0.4928 0 0 0
224 3 1 -0.0654502 0.449716 0.463891 0.497649 0 0 0
274 3 2 0.0327251 0.442202 0.475329 0.543535 0 0 0
470 5 2 0.0327251 0.203312 0.369626 0.560561 0 0 0
785 8 2 0.0327251 0.192646 0.573497 0.644617 0 0 0
790 8 2 0.0327251 0.284729 0.532447 0.672158 0 0 0
427 5 1 -0.0654502 0.258331 0.432145 0.607006 0 0 0
475 5 2 0.0327251 0.260473 0.352103 0.658296 0 0 0
430 5 1 -0.0654502 0.398146 0.420004 0.647986 0 0 0
431 5 1 -0.0654502 0.42207 0.416751 0.710988 0 0 0
432 5 1 -0.0654502 0.470981 0.461417 0.726509 0 0 0
424 5 1 -0.0654502 0.162826 0.478439 0.51789 0 0 0
794 8 2 0.0327251 0.355253 0.539217 0.582623 0 0 0
784 8 2 0.0327251 0.140367 0.628596 0.656672 0 0 0
792 8 2 0.0327251 0.280447 0.622446 0.612135 0 0 0
466 5 2 0.0327251 0.172997 0.507957 0.554391 0 0 0
472 5 2 0.0327251 0.220044 0.452544 0.627497 0 0 0
473 5 2 0.0327251 0.288291 0.467667 0.595417 0 0 0
474 5 2 0.0327251 0.288374 0.413374 0.695457 0 0 0
478 5 2 0.0327251 0.381029 0.463889 0.639288 0 0 0
321 4 1 -0.0654502 0.108929 0.343994 0.670261 0 0 0
480 5 2 0.0327251 0.385277 0.423434 0.741032 0 0 0
481 5 2 0.0327251 0.438835 0.372452 0.719099 0 0 0
482 5 2 0.0327251 0.451108 0.50444 0.734281 0 0 0
270 3 2 0.0327251 0.437654 0.350334 0.541995 0 0 0
467 5 2 0.0327251 0.128808 0.448621 0.533977 0 0 0
471 5 2 0.0327251 0.274857 0.374081 0.532842 0 0 0
740 8 1 -0.0654502 0.215967 0.636257 0.713148 0 0 0
795 8 2 0.0327251 0.353177 0.605352 0.545216 0 0 0
429 5 1 -0.0654502 0.350718 0.372593 0.636158 0 0 0
477 5 2 0.0327251 0.351951 0.360063 0.589941 0 0 0
797 8 2 0.0327251 0.455963 0.57119 0.570377 0 0 0
364 4 2 0.0327251 0.103216 0.390833 0.662337 0 0 0
736 8 1 -0.0654502 0.0530569 0.538921 0.642702 0 0 0
737 8 1 -0.0654502 0.0986212 0.512432 0.68554 0 0 0
738 8 1 -0.0654502 0.135359 0.557874 0.719426 0 0 0
739 8 1 -0.0654502 0.170825 0.598905 0.679017 0 0 0
741 8 1 -0.0654502 0.271084 0.602484 0.735361 0 0 0
742 8 1 -0.0654502 0.308075 0.571464 0.687193 0 0 0
743 8 1 -0.0654502 0.321583 0.611771 0.634428 0 0 0
744 8 1 -0.0654502 0.363637 0.586048 0.587894 0 0 0
745 8 1 -0.0654502 0.429444 0.595948 0.601763 0 0 0
746 8 1 -0.0654502 0.450188 0.660961 0.600704 0 0 0
796 8 2 0.0327251 0.438879 0.577057 0.64477 0 0 0
791 8 2 0.0327251 0.349209 0.556132 0.706698 0 0 0
775 8 2 0.0327251 0.00394323 0.428019 0.688507 0 0 0
428 5 1 -0.0654502 0.287625 0.391353 0.652751 0 0 0
777 8 2 0.0327251 0.0325016 0.461974 0.590863 0 0 0
778 8 2 0.0327251 0.0761439 0.558656 0.605462 0 0 0
779 8 2 0.0327251 0.0294866 0.574865 0.664048 0 0 0
780 8 2 0.0327251 0.128278 0.483842 0.660982 0 0 0
781 8 2 0.0327251 0.0765042 0.485201 0.718201 0 0 0
479 5 2 0.0327251 0.434588 0.412934 0.617805 0 0 0
783 8 2 0.0327251 0.165178 0.534002 0.748527 0 0 0
793 8 2 0.0327251 0.339564 0.65268 0.651477 0 0 0
361 4 2 0.0327251 0.0646228 0.367765 0.564259 0 0 0
426 5 1 -0.0654502 0.238736 0.400385 0.550317 0 0 0
735 8 1 -0.0654502 0.00873413 0.493012 0.618698 0 0 0
782 8 2 0.0327251 0.106577 0.583995 0.747712 0 0 0
798 8 2 0.0327251 0.497674 0.662086 0.607166 0 0 0
369 4 2 0.0327251 0.197258 0.37442 0.746091 0 0 0
222 3 1 -0.0654502 0.468763 0.350187 0.505741 0 0 0
425 5 1 -0.0654502 0.218498 0.442979 0.50152 0 0 0
328 4 1 -0.0654502 0.347385 0.414809 0.874003 0 0 0
374 4 2 0.0327251 0.2779 0.358232 0.798182 0 0 0
331 4 1 -0.0654502 0.465713 0.386315 0.947272 0 0 0
324 4 1 -0.0654502 0.161955 0.361438 0.834467 0 0 0
376 4 2 0.0327251 0.258755 0.405433 0.904371 0 0 0
379 4 2 0.0327251 0.359499 0.442793 0.911055 0 0 0
384 4 2 0.0327251 0.430916 0.403332 0.975531 0 0 0
370 4 2 0.0327251 0.172209 0.40218 0.857695 0 0 0
386 4 2 0.0327251 0.483685 0.461435 0.888853 0 0 0
789 8 2 0.0327251 0.258001 0.569977 0.768194 0 0 0
1138 11 2 0.0327026 0.0654682 0.61852 0.921799 0 0 -1
1132 11 2 0.0327251 0.276392 0.607596 0.931034 0 0 -1
323 4 1 -0.0654502 0.154735 0.374934 0.76825 0 0 0
768 8 2 0.0327026 0.00200896 0.459792 0.803485 0 0 0
378 4 2 0.0327251 0.33358 0.444672 0.838975 0 0 0
1135 11 2 0.0327251 0.167851 0.581717 0.934801 0 0 -1
1134 11 2 0.0327251 0.185848 0.635878 0.883907 0 0 -1
522 6 1 -0.0689545 0.0323966 0.368716 0.997335 0 0 0
329 4 1 -0.0654502 0.40159 0.380291 0.852442 0 0 0
371 4 2 0.0327251 0.119676 0.346845 0.85187 0 0 0
483 5 2 0.0327251 0.490393 0.447603 0.768089 0 0 0
385 4 2 0.0327251 0.492942 0.358217 0.974865 0 0 0
381 4 2 0.0327251 0.431013 0.410958 0.831016 0 0 0
377 4 2 0.0327251 0.305177 0.349476 0.92918 0 0 0
368 4 2 0.0327251 0.137969 0.419662 0.763889 0 0 0
366 4 2 0.0327251 0.0681677 0.337552 0.756174 0 0 0
1070 11 1 -0.0654504 0.183072 0.627074 0.931036 0 0 -1
559 6 2 0.0321908 0.0441143 0.409906 0.975613 0 0 0
327 4 1 -0.0654502 0.294307 0.376196 0.890842 0 0 0
1127 11 2 0.0327251 0.305896 0.514762 0.969816 0 0 -1
1069 11 1 -0.0654502 0.245498 0.632887 0.957742 0 0 -1
330 4 1 -0.0654502 0.436493 0.347178 0.899882 0 0 0
380 4 2 0.0327251 0.388501 0.349499 0.818185 0 0 0
326 4 1 -0.0654502 0.27316 0.335834 0.840348 0 0 0
1072 11 1 -0.0658014 0.0768345 0.664844 0.927728 0 0 -1
788 8 2 0.0327251 0.299321 0.633741 0.758438 0 0 0
787 8 2 0.0327251 0.193824 0.656459 0.750629 0 0 0
942 10 1 -0.0654502 0.0917909 0.723174 0.20114 0 0 0
980 10 2 0.0327251 0.00232202 0.695209 0.195656 0 0 0
235 3 1 -0.0654502 0.251179 0.692812 0.204214 0 0 0
65 1 2 0.0327251 0.485678 0.808473 0.223888 0 0 0
242 3 1 -0.0768792 0.203972 0.955325 0.0414203 0 0 0
311 3 2 0.0272878 0.175898 0.99407 0.0375072 0 0 0
67 1 2 0.0327251 0.438789 0.711752 0.188694 0 0 0
137 2 1 -0.0689545 0.011411 0.985456 0.0265034 1 -1 0
299 3 2 0.0327251 0.255033 0.787772 0.204577 0 0 0
236 3 1 -0.0654502 0.284916 0.751126 0.196256 0 0 0
237 3 1 -0.0654502 0.314482 0.759056 0.135506 0 0 0
238 3 1 -0.0654504 0.271504 0.769735 0.0839632 0 0 0
239 3 1 -0.0654644 0.23814 0.828694 0.0881946 0 0 0
240 3 1 -0.0658014 0.205132 0.84266 0.0306514 0 0 0
241 3 1 -0.0689545 0.167441 0.898877 0.0336825 0 0 0
136 2 1 -0.0658014 0.0327873 0.977614 0.0904589 1 -1 0
205 2 2 0.0321908 0.0253725 0.947384 0.000708315 1 -1 0
296 3 2 0.0327251 0.219815 0.686642 0.168421 0 0 0
1140 11 2 0.0321908 0.0200304 0.672315 0.00401108 0 0 0
300 3 2 0.0327251 0.341624 0.720726 0.125594 0 0 0
301 3 2 0.0327251 0.34478 0.796249 0.137886 0 0 0
302 3 2 0.0327251 0.296814 0.769182 0.0431156 0 0 0
303 3 2 0.0327251 0.239954 0.733733 0.0807904 0 0 0
304 3 2 0.0327247 0.206761 0.827152 0.124545 0 0 0
305 3 2 0.0327247 0.269359 0.863916 0.0978047 0 0 0
306 3 2 0.0327026 0.176568 0.80564 0.0196259 0 0 0
613 6 2 0.0327251 0.49009 0.971574 0.0459405 0 -1 0
308 3 2 0.0321908 0.135842 0.89497 0.0696361 0 0 0
983 10 2 0.0327251 0.133022 0.703805 0.215517 0 0 0
982 10 2 0.0327251 0.0995748 0.741893 0.157573 0 0 0
312 3 2 0.0272878 0.225067 0.956688 0.0845409 0 0 0
985 10 2 0.0327251 0.109394 0.80594 0.244268 0 0 0
202 2 2 0.0327026 0.0212626 0.933347 0.105039 1 -1 0
984 10 2 0.0327251 0.0356407 0.795921 0.225314 0 0 0
610 6 2 0.0327251 0.477625 0.95368 0.150657 0 -1 0
203 2 2 0.0327026 0.0806735 0.980218 0.0919915 1 -1 0
297 3 2 0.0327251 0.225954 0.696696 0.244839 0 0 0
298 3 2 0.0327251 0.318436 0.75389 0.230471 0 0 0
943 10 1 -0.0654502 0.0740706 0.773386 0.243364 0 0 0
64 1 2 0.0327251 0.409136 0.806508 0.220856 0 0 0
310 3 2 0.0272878 0.238133 0.958323 0.0078093 0 0 0
1144 11 2 0.0272878 0.0742431 0.768081 0.0018084 0 0 0
198 2 2 0.0327251 0.0661115 0.994254 0.202556 1 -1 0
941 10 1 -0.0654504 0.0452872 0.674432 0.196949 0 0 0
58 1 2 0.0327251 0.402469 0.90518 0.238579 0 0 0
15 1 1 -0.0654502 0.446986 0.788696 0.244283 0 0 0
16 1 1 -0.0654502 0.446943 0.721301 0.235035 0 0 0
696 7 2 0.0327251 0.495557 0.912115 0.44668 0 0 0
5 1 1 -0.0654504 0.101286 0.990072 0.408103 0 0 0
6 1 1 -0.0654502 0.107536 0.922684 0.403376 0 0 0
7 1 1 -0.0654502 0.134479 0.902444 0.344383 0 0 0
8 1 1 -0.0654502 0.198529 0.921939 0.333267 0 0 0
9 1 1 -0.0654502 0.243659 0.889162 0.37224 0 0 0
10 1 1 -0.0654502 0.308168 0.90705 0.360158 0 0 0
11 1 1 -0.0654502 0.330149 0.889338 0.298243 0 0 0
12 1 1 -0.0654502 0.394077 0.908649 0.285741 0 0 0
13 1 1 -0.0654502 0.442186 0.874347 0.319675 0 0 0
14 1 1 -0.0654502 0.442965 0.806962 0.30971 0 0 0
946 10 1 -0.0654502 0.100657 0.711413 0.404308 0 0 0
987 10 2 0.0327251 0.0213828 0.725365 0.307389 0 0 0
992 10 2 0.0327251 0.0716436 0.799821 0.425095 0 0 0
46 1 2 0.0327251 0.0639216 0.902875 0.40713 0 0 0
47 1 2 0.0327251 0.133352 0.905803 0.44019 0 0 0
48 1 2 0.0327251 0.10689 0.918619 0.308504 0 0 0
49 1 2 0.0327251 0.132522 0.854595 0.342034 0 0 0
50 1 2 0.0327251 0.208132 0.913149 0.287076 0 0 0
51 1 2 0.0327251 0.202914 0.969402 0.339175 0 0 0
52 1 2 0.0327251 0.238899 0.841744 0.365976 0 0 0
53 1 2 0.0327251 0.233938 0.897911 0.41846 0 0 0
945 10 1 -0.0654502 0.111729 0.72303 0.338279 0 0 0
55 1 2 0.0327251 0.336044 0.886337 0.393358 0 0 0
57 1 2 0.0327251 0.325419 0.841967 0.292204 0 0 0
54 1 2 0.0327251 0.312819 0.954533 0.366014 0 0 0
60 1 2 0.0327251 0.48502 0.892241 0.307285 0 0 0
61 1 2 0.0327251 0.437397 0.882886 0.366661 0 0 0
62 1 2 0.0327251 0.403764 0.787396 0.329413 0 0 0
63 1 2 0.0327251 0.480412 0.788837 0.333681 0 0 0
42 1 2 0.0327247 0.0170452 0.985592 0.451794 0 0 0
944 10 1 -0.0654502 0.0598567 0.754125 0.307049 0 0 0
56 1 2 0.0327251 0.302344 0.909903 0.264983 0 0 0
59 1 2 0.0327251 0.398103 0.95536 0.296068 0 0 0
947 10 1 -0.0654502 0.103019 0.767843 0.442146 0 0 0
803 8 2 0.0327251 0.436521 0.691348 0.449536 0 0 0
991 10 2 0.0327251 0.134079 0.680612 0.419857 0 0 0
988 10 2 0.0327251 0.151998 0.748747 0.333023 0 0 0
990 10 2 0.0327251 0.0581732 0.689697 0.409948 0 0 0
989 10 2 0.0327251 0.119625 0.680803 0.316829 0 0 0
986 10 2 0.0327251 0.0470938 0.793361 0.331513 0 0 0
66 1 2 0.0327251 0.409828 0.702504 0.258999 0 0 0
998 10 2 0.0327251 0.210851 0.725959 0.49268 0 0 0
993 10 2 0.0327251 0.1464 0.788109 0.438177 0 0 0
1007 10 2 0.0327251 0.249752 0.776437 0.680446 0 0 0
677 7 2 0.0327251 0.215727 0.920329 0.731112 0 0 0
800 8 2 0.0327251 0.387574 0.701208 0.541278 0 0 0
1005 10 2 0.0327251 0.358766 0.776045 0.601993 0 0 0
671 7 2 0.0327251 0.160499 0.82926 0.731779 0 0 0
691 7 2 0.0327251 0.430882 0.862036 0.51195 0 0 0
41 1 2 0.0327026 0.0967677 0.955563 0.526454 0 0 0
1004 10 2 0.0327251 0.305277 0.721805 0.596998 0 0 0
1003 10 2 0.0327251 0.283001 0.85107 0.573926 0 0 0
631 7 1 -0.0654502 0.102845 0.886869 0.682564 0 0 0
632 7 1 -0.0654502 0.141929 0.942324 0.676264 0 0 0
633 7 1 -0.0654502 0.207945 0.930143 0.684853 0 0 0
634 7 1 -0.0654502 0.248566 0.981609 0.66748 0 0 0
635 7 1 -0.0654502 0.258861 0.985336 0.600662 0 0 0
37 1 2 0.0272878 0.00565705 0.929701 0.585824 0 0 0
638 7 1 -0.0654502 0.397422 0.974317 0.611548 0 0 0
639 7 1 -0.0654502 0.40387 0.944652 0.55072 0 0 0
1006 10 2 0.0327251 0.314168 0.7399 0.699276 0 0 0
672 7 2 0.0327251 0.056817 0.900252 0.683694 0 0 0
673 7 2 0.0327251 0.107737 0.860272 0.64285 0 0 0
674 7 2 0.0327251 0.135031 0.960556 0.632493 0 0 0
675 7 2 0.0327251 0.127735 0.975771 0.707635 0 0 0
676 7 2 0.0327251 0.220042 0.890918 0.660005 0 0 0
640 7 1 -0.0654502 0.435328 0.884538 0.554149 0 0 0
670 7 2 0.0327251 0.0868103 0.80927 0.73489 0 0 0
679 7 2 0.0327251 0.290618 0.975029 0.689648 0 0 0
680 7 2 0.0327251 0.217002 0.993343 0.578558 0 0 0
681 7 2 0.0327251 0.27421 0.942955 0.584916 0 0 0
686 7 2 0.0327251 0.375317 0.944227 0.64146 0 0 0
687 7 2 0.0327251 0.440917 0.982084 0.630301 0 0 0
747 8 1 -0.0654502 0.435044 0.695351 0.543894 0 0 0
1011 10 2 0.0327251 0.407439 0.873406 0.713272 0 0 0
519 5 2 0.0272878 0.0104396 0.977762 0.734062 1 0 0
1010 10 2 0.0327251 0.412017 0.798992 0.695542 0 0 0
799 8 2 0.0327251 0.431795 0.684437 0.638347 0 0 0
688 7 2 0.0327251 0.360493 0.93715 0.531641 0 0 0
630 7 1 -0.0654502 0.116221 0.847238 0.736263 0 0 0
786 8 2 0.0327251 0.229737 0.672663 0.685144 0 0 0
1002 10 2 0.0327251 0.294684 0.798049 0.520196 0 0 0
801 8 2 0.0327251 0.453863 0.739481 0.546633 0 0 0
689 7 2 0.0327251 0.426823 0.973964 0.520444 0 0 0
948 10 1 -0.0654502 0.0879347 0.757777 0.507612 0 0 0
949 10 1 -0.0654502 0.128786 0.714479 0.54049 0 0 0
950 10 1 -0.0654502 0.194979 0.72963 0.537884 0 0 0
951 10 1 -0.0654502 0.20973 0.791434 0.562318 0 0 0
952 10 1 -0.0654502 0.276419 0.804794 0.564136 0 0 0
953 10 1 -0.0654502 0.312024 0.767636 0.608384 0 0 0
954 10 1 -0.0654502 0.297292 0.777016 0.674092 0 0 0
955 10 1 -0.0654502 0.322529 0.834536 0.699545 0 0 0
956 10 1 -0.0654502 0.38689 0.830755 0.721418 0 0 0
690 7 2 0.0327251 0.412383 0.857125 0.586108 0 0 0
1009 10 2 0.0327251 0.294393 0.849412 0.735386 0 0 0
994 10 2 0.0327251 0.0881827 0.800157 0.530242 0 0 0
995 10 2 0.0327251 0.0428567 0.741611 0.510812 0 0 0
996 10 2 0.0327251 0.115135 0.71271 0.586526 0 0 0
1008 10 2 0.0327251 0.319676 0.868552 0.665996 0 0 0
999 10 2 0.0327251 0.218318 0.696096 0.563011 0 0 0
1000 10 2 0.0327251 0.188968 0.824675 0.534569 0 0 0
1001 10 2 0.0327251 0.19048 0.79661 0.605959 0 0 0
997 10 2 0.0327251 0.122255 0.67013 0.523168 0 0 0
246 3 2 0.0321908 0.271245 0.970693 0.810206 0 -1 0
959 10 1 -0.0654502 0.462678 0.729248 0.792318 0 0 0
660 7 2 0.0272878 0.266019 0.707047 0.852572 0 0 0